! Touchstone file exported from HFSS 2022.1.0
!        File:           C:/Users/Hamza Safder/Downloads/PSF-V2 with holder (4).aedt
!        Generated:      2:39:35 AM  Sep 30, 2023
!        Design:         HFSSDesign1
!        Project:        PSF-V2 with holder (4)
!        Setup:          Setup1
!        Solution:       Sweep
!
! Variables:
!        WS = 5mm
!        ax = 15mm
!        az = 3.18mm
!        azd = 3mm
!        bx = 13mm
!        bx2 = 12.5mm
!        bx3 = 3.16mm
!        cin = 27.8mm
!        gap = 0.7mm
!        mid = 3mm
!        shift = 21.24mm
!        strip_1L = 18.62mm
!        substrate_L = 80mm
!        substrate_W = 70mm
!        t = 3mm
!        w50 = 9.18mm
!        wt = 1mm
!        xs = 0.8mm
!        zzz = 8mm
!
# GHz S MA R 50.000000
! Terminal data exported
! Port[1] = ground_T1
! Port[2] = ground_T2
2                              0.960370453639563 150.751332250558 0.0311598205084099 -165.089891204752 0.0311598205084104 -165.089891204752 0.960025320654612 150.772322133882 
! Gamma         0                0                0                0                
! Port Impedance         50               0                50               0                
2.002                          0.960321804538624 150.532775467214 0.0311572720855707 -165.383027937112 0.0311572720855713 -165.383027937112 0.959976598758639 150.553857460155 
! Gamma         0                0                0                0                
! Port Impedance         50               0                50               0                
2.004                          0.960273075368862 150.314150234664 0.0311545627989906 -165.676354720713 0.0311545627989911 -165.676354720712 0.959927796998174 150.335324569748 
! Gamma         0                0                0                0                
! Port Impedance         50               0                50               0                
2.006                          0.960224265459921 150.095456406148 0.0311516920609769 -165.969873668577 0.0311516920609774 -165.969873668576 0.95987891467684 150.116723316979 
! Gamma         0                0                0                0                
! Port Impedance         50               0                50               0                
2.008                          0.960175374139738 149.876693835069 0.0311486592810735 -166.26358691682 0.0311486592810741 -166.263586916819 0.95982995109654 149.898053556332 
! Gamma         0                0                0                0                
! Port Impedance         50               0                50               0                
2.01                           0.960126400734538 149.65786237499  0.0311454638660456 -166.557496624975 0.0311454638660462 -166.557496624975 0.959780905557452 149.679315142456 
! Gamma         0                0                0                0                
! Port Impedance         50               0                50               0                
2.012                          0.960077344568816 149.438961879629 0.0311421052198645 -166.851604976322 0.031142105219865 -166.851604976322 0.95973177735801 149.460507930158 
! Gamma         0                0                0                0                
! Port Impedance         50               0                50               0                
2.014                          0.960028204965333 149.219992202858 0.0311385827436928 -167.145914178224 0.0311385827436933 -167.145914178223 0.959682565794903 149.241631774405 
! Gamma         0                0                0                0                
! Port Impedance         50               0                50               0                
2.016                          0.959978981245101 149.0009531987   0.0311348958358703 -167.440426462461 0.0311348958358708 -167.44042646246 0.959633270163057 149.022686530316 
! Gamma         0                0                0                0                
! Port Impedance         50               0                50               0                
2.018                          0.95992967272737 148.781844721321 0.031131043891899 -167.735144085581 0.0311310438918995 -167.735144085581 0.959583889755628 148.803672053161 
! Gamma         0                0                0                0                
! Port Impedance         50               0                50               0                
2.02                           0.959880278729621 148.56266662503  0.0311270263044295 -168.03006932925 0.0311270263044299 -168.03006932925 0.959534423863989 148.584588198355 
! Gamma         0                0                0                0                
! Port Impedance         50               0                50               0                
2.022                          0.959830798567548 148.343418764277 0.0311228424632467 -168.325204500604 0.0311228424632471 -168.325204500604 0.959484871777717 148.365434821457 
! Gamma         0                0                0                0                
! Port Impedance         50               0                50               0                
2.024                          0.959781231555048 148.124100993642 0.0311184917552567 -168.620551932615 0.0311184917552571 -168.620551932614 0.959435232784581 148.146211778164 
! Gamma         0                0                0                0                
! Port Impedance         50               0                50               0                
2.026                          0.959731577004207 147.904713167838 0.0311139735644729 -168.916113984457 0.0311139735644733 -168.916113984456 0.959385506170531 147.926918924305 
! Gamma         0                0                0                0                
! Port Impedance         50               0                50               0                
2.028                          0.959681834225287 147.685255141705 0.0311092872720034 -169.21189304188 0.0311092872720038 -169.21189304188 0.959335691219682 147.707556115843 
! Gamma         0                0                0                0                
! Port Impedance         50               0                50               0                
2.03                           0.959632002526708 147.465726770202 0.031104432256038 -169.507891517591 0.0311044322560384 -169.507891517591 0.959285787214301 147.488123208866 
! Gamma         0                0                0                0                
! Port Impedance         50               0                50               0                
2.032                          0.959582081215037 147.246127908407 0.0310994078918359 -169.804111851638 0.0310994078918363 -169.804111851638 0.959235793434792 147.268620059583 
! Gamma         0                0                0                0                
! Port Impedance         50               0                50               0                
2.034                          0.959532069594974 147.026458411514 0.0310942135517134 -170.100556511805 0.0310942135517138 -170.100556511804 0.959185709159685 147.04904652432  
! Gamma         0                0                0                0                
! Port Impedance         50               0                50               0                
2.036                          0.95948196696933 146.80671813482  0.0310888486050326 -170.397227994006 0.031088848605033 -170.397227994006 0.959135533665614 146.829402459519 
! Gamma         0                0                0                0                
! Port Impedance         50               0                50               0                
2.038                          0.959431772639015 146.586906933732 0.0310833124181895 -170.694128822696 0.0310833124181899 -170.694128822696 0.959085266227307 146.609687721726 
! Gamma         0                0                0                0                
! Port Impedance         50               0                50               0                
2.04                           0.959381485903024 146.367024663752 0.0310776043546034 -170.991261551281 0.0310776043546038 -170.99126155128 0.959034906117567 146.389902167594 
! Gamma         0                0                0                0                
! Port Impedance         50               0                50               0                
2.042                          0.959331106058412 146.14707118048  0.0310717237747061 -171.288628762532 0.0310717237747065 -171.288628762531 0.958984452607255 146.170045653874 
! Gamma         0                0                0                0                
! Port Impedance         50               0                50               0                
2.044                          0.959280632400282 145.927046339602 0.0310656700359318 -171.586233069018 0.0310656700359322 -171.586233069017 0.958933904965274 145.95011803741  
! Gamma         0                0                0                0                
! Port Impedance         50               0                50               0                
2.046                          0.959230064221767 145.706949996891 0.0310594424927075 -171.884077113534 0.0310594424927078 -171.884077113533 0.95888326245855 145.730119175134 
! Gamma         0                0                0                0                
! Port Impedance         50               0                50               0                
2.048                          0.959179400814005 145.486782008199 0.0310530404964434 -172.182163569542 0.0310530404964438 -172.182163569541 0.958832524352014 145.510048924065 
! Gamma         0                0                0                0                
! Port Impedance         50               0                50               0                
2.05                           0.959128641466128 145.26654222945  0.0310464633955246 -172.480495141618 0.031046463395525 -172.480495141618 0.958781689908583 145.289907141297 
! Gamma         0                0                0                0                
! Port Impedance         50               0                50               0                
2.052                          0.959077785465233 145.046230516641 0.0310397105353023 -172.779074565908 0.0310397105353027 -172.779074565907 0.95873075838914 145.069693683998 
! Gamma         0                0                0                0                
! Port Impedance         50               0                50               0                
2.054                          0.959026832096369 144.825846725827 0.0310327812580865 -173.077904610587 0.0310327812580868 -173.077904610586 0.958679729052512 144.849408409404 
! Gamma         0                0                0                0                
! Port Impedance         50               0                50               0                
2.056                          0.95897578064251 144.605390713123 0.0310256749031383 -173.376988076331 0.0310256749031386 -173.376988076331 0.958628601155455 144.629051174811 
! Gamma         0                0                0                0                
! Port Impedance         50               0                50               0                
2.058                          0.958924630384537 144.384862334696 0.0310183908066637 -173.676327796797 0.031018390806664 -173.676327796797 0.958577373952624 144.408621837574 
! Gamma         0                0                0                0                
! Port Impedance         50               0                50               0                
2.06                           0.958873380601213 144.164261446757 0.0310109283018074 -173.975926639105 0.0310109283018076 -173.975926639104 0.95852604669656 144.188120255096 
! Gamma         0                0                0                0                
! Port Impedance         50               0                50               0                
2.062                          0.958822030569162 143.943587905559 0.0310032867186471 -174.275787504332 0.0310032867186474 -174.275787504331 0.958474618637659 143.967546284824 
! Gamma         0                0                0                0                
! Port Impedance         50               0                50               0                
2.064                          0.958770579562841 143.722841567387 0.0309954653841892 -174.575913328019 0.0309954653841894 -174.575913328019 0.958423089024155 143.746899784243 
! Gamma         0                0                0                0                
! Port Impedance         50               0                50               0                
2.066                          0.95871902685452 143.502022288554 0.030987463622364 -174.876307080678 0.0309874636223643 -174.876307080678 0.95837145710209 143.526180610873 
! Gamma         0                0                0                0                
! Port Impedance         50               0                50               0                
2.068                          0.958667371714256 143.281129925392 0.030979280754023 -175.176971768313 0.0309792807540233 -175.176971768313 0.958319722115297 143.305388622254 
! Gamma         0                0                0                0                
! Port Impedance         50               0                50               0                
2.07                           0.958615613409864 143.06016433425  0.0309709160969356 -175.477910432947 0.0309709160969359 -175.477910432946 0.958267883305367 143.084523675948 
! Gamma         0                0                0                0                
! Port Impedance         50               0                50               0                
2.072                          0.958563751206894 142.839125371484 0.0309623689657873 -175.779126153161 0.0309623689657876 -175.779126153161 0.958215939911626 142.86358562953  
! Gamma         0                0                0                0                
! Port Impedance         50               0                50               0                
2.074                          0.9585117843686  142.618012893448 0.0309536386721788 -176.080622044643 0.030953638672179 -176.080622044643 0.958163891171109 142.642574340577 
! Gamma         0                0                0                0                
! Port Impedance         50               0                50               0                
2.076                          0.958459712155916 142.396826756495 0.0309447245246251 -176.382401260738 0.0309447245246253 -176.382401260738 0.958111736318531 142.421489666669 
! Gamma         0                0                0                0                
! Port Impedance         50               0                50               0                
2.078                          0.958407533827425 142.17556681696  0.0309356258285562 -176.684466993021 0.0309356258285565 -176.68446699302 0.958059474586258 142.200331465373 
! Gamma         0                0                0                0                
! Port Impedance         50               0                50               0                
2.08                           0.958355248639327 141.954232931159 0.0309263418863189 -176.986822471864 0.0309263418863191 -176.986822471864 0.958007105204281 141.979099594242 
! Gamma         0                0                0                0                
! Port Impedance         50               0                50               0                
2.082                          0.958302855845414 141.732824955382 0.0309168719971781 -177.289470967032 0.0309168719971784 -177.289470967032 0.957954627400181 141.757793910806 
! Gamma         0                0                0                0                
! Port Impedance         50               0                50               0                
2.084                          0.958250354697034 141.511342745881 0.0309072154573209 -177.592415788269 0.0309072154573211 -177.592415788268 0.957902040399103 141.536414272564 
! Gamma         0                0                0                0                
! Port Impedance         50               0                50               0                
2.086                          0.958197744443061 141.289786158867 0.0308973715598601 -177.895660285908 0.0308973715598603 -177.895660285907 0.957849343423721 141.314960536976 
! Gamma         0                0                0                0                
! Port Impedance         50               0                50               0                
2.088                          0.958145024329861 141.068155050497 0.0308873395948397 -178.199207851488 0.0308873395948399 -178.199207851488 0.957796535694208 141.093432561456 
! Gamma         0                0                0                0                
! Port Impedance         50               0                50               0                
2.09                           0.95809219360126 140.846449276872 0.0308771188492412 -178.503061918381 0.0308771188492414 -178.503061918381 0.957743616428201 140.871830203365 
! Gamma         0                0                0                0                
! Port Impedance         50               0                50               0                
2.092                          0.958039251498509 140.624668694025 0.0308667086069907 -178.807225962429 0.030866708606991 -178.807225962429 0.957690584840768 140.65015332     
! Gamma         0                0                0                0                
! Port Impedance         50               0                50               0                
2.094                          0.957986197260245 140.402813157913 0.0308561081489676 -179.111703502594 0.0308561081489678 -179.111703502593 0.95763744014437 140.428401768588 
! Gamma         0                0                0                0                
! Port Impedance         50               0                50               0                
2.096                          0.95793303012246 140.180882524408 0.0308453167530139 -179.416498101618 0.0308453167530141 -179.416498101617 0.95758418154883 140.206575406276 
! Gamma         0                0                0                0                
! Port Impedance         50               0                50               0                
2.098                          0.957879749318459 139.958876649292 0.0308343336939455 -179.721613366698 0.0308343336939456 -179.721613366697 0.957530808261292 139.984674090124 
! Gamma         0                0                0                0                
! Port Impedance         50               0                50               0                
2.1                            0.957826354078825 139.736795388244 0.0308231582435637 179.972947049832 0.0308231582435638 179.972947049833 0.957477319486185 139.762697677097 
! Gamma         0                0                0                0                
! Port Impedance         50               0                50               0                
2.102                          0.957772843631376 139.514638596833 0.0308117896706693 179.667179449804 0.0308117896706695 179.667179449805 0.957423714425183 139.540646024051 
! Gamma         0                0                0                0                
! Port Impedance         50               0                50               0                
2.104                          0.95771921720113 139.292406130506 0.030800227241077 179.361080088506 0.0308002272410772 179.361080088507 0.957369992277165 139.318518987729 
! Gamma         0                0                0                0                
! Port Impedance         50               0                50               0                
2.106                          0.957665474010258 139.070097844586 0.0307884702176315 179.054645173963 0.0307884702176317 179.054645173963 0.957316152238176 139.096316424753 
! Gamma         0                0                0                0                
! Port Impedance         50               0                50               0                
2.108                          0.957611613278044 138.847713594253 0.0307765178602254 178.747870866198 0.0307765178602255 178.747870866199 0.957262193501383 138.874038191606 
! Gamma         0                0                0                0                
! Port Impedance         50               0                50               0                
2.11                           0.957557634220844 138.62525323454  0.0307643694258181 178.440753276492 0.0307643694258183 178.440753276493 0.957208115257034 138.651684144632 
! Gamma         0                0                0                0                
! Port Impedance         50               0                50               0                
2.112                          0.957503536052036 138.402716620323 0.0307520241684567 178.133288466616 0.0307520241684569 178.133288466616 0.95715391669241 138.42925414002  
! Gamma         0                0                0                0                
! Port Impedance         50               0                50               0                
2.114                          0.957449317981981 138.180103606309 0.0307394813392982 177.825472448058 0.0307394813392983 177.825472448058 0.957099596991786 138.206748033798 
! Gamma         0                0                0                0                
! Port Impedance         50               0                50               0                
2.116                          0.957394979217971 137.957414047027 0.0307267401866333 177.517301181238 0.0307267401866335 177.517301181239 0.957045155336378 137.984165681818 
! Gamma         0                0                0                0                
! Port Impedance         50               0                50               0                
2.118                          0.957340518964182 137.734647796817 0.0307137999559127 177.208770574704 0.0307137999559128 177.208770574704 0.956990590904302 137.761506939751 
! Gamma         0                0                0                0                
! Port Impedance         50               0                50               0                
2.12                           0.957285936421628 137.511804709819 0.0307006598897738 176.899876484309 0.030700659889774 176.89987648431  0.956935902870519 137.538771663072 
! Gamma         0                0                0                0                
! Port Impedance         50               0                50               0                
2.122                          0.957231230788106 137.288884639962 0.0306873192280709 176.590614712389 0.030687319228071 176.59061471239  0.956881090406792 137.315959707051 
! Gamma         0                0                0                0                
! Port Impedance         50               0                50               0                
2.124                          0.957176401258151 137.065887440955 0.0306737772079057 176.280981006907 0.0306737772079058 176.280981006908 0.956826152681628 137.093070926744 
! Gamma         0                0                0                0                
! Port Impedance         50               0                50               0                
2.126                          0.957121447022977 136.842812966274 0.0306600330636611 175.970971060596 0.0306600330636612 175.970971060597 0.956771088860229 136.870105176976 
! Gamma         0                0                0                0                
! Port Impedance         50               0                50               0                
2.128                          0.957066367270424 136.619661069149 0.0306460860270365 175.660580510077 0.0306460860270366 175.660580510078 0.956715898104443 136.647062312336 
! Gamma         0                0                0                0                
! Port Impedance         50               0                50               0                
2.13                           0.957011161184907 136.396431602557 0.0306319353270849 175.349804934967 0.030631935327085 175.349804934968 0.956660579572698 136.423942187162 
! Gamma         0                0                0                0                
! Port Impedance         50               0                50               0                
2.132                          0.956955827947356 136.173124419204 0.0306175801902529 175.038639856967 0.030617580190253 175.038639856968 0.956605132419957 136.200744655529 
! Gamma         0                0                0                0                
! Port Impedance         50               0                50               0                
2.134                          0.956900366735156 135.949739371519 0.0306030198404223 174.727080738936 0.0306030198404224 174.727080738936 0.956549555797655 135.977469571239 
! Gamma         0                0                0                0                
! Port Impedance         50               0                50               0                
2.136                          0.956844776722095 135.726276311636 0.0305882534989549 174.415122983942 0.030588253498955 174.415122983943 0.95649384885364 135.754116787805 
! Gamma         0                0                0                0                
! Port Impedance         50               0                50               0                
2.138                          0.956789057078292 135.502735091386 0.0305732803847386 174.102761934307 0.0305732803847387 174.102761934307 0.956438010732114 135.530686158443 
! Gamma         0                0                0                0                
! Port Impedance         50               0                50               0                
2.14                           0.956733206970148 135.279115562281 0.0305580997142371 173.789992870619 0.0305580997142372 173.78999287062  0.956382040573569 135.307177536056 
! Gamma         0                0                0                0                
! Port Impedance         50               0                50               0                
2.142                          0.95667722556027 135.055417575503 0.0305427107015413 173.476811010743 0.0305427107015414 173.476811010743 0.956325937514728 135.083590773222 
! Gamma         0                0                0                0                
! Port Impedance         50               0                50               0                
2.144                          0.956621112007414 134.831640981891 0.0305271125584245 173.163211508795 0.0305271125584246 173.163211508795 0.956269700688477 134.859925722182 
! Gamma         0                0                0                0                
! Port Impedance         50               0                50               0                
2.146                          0.956564865466416 134.607785631923 0.0305113044943989 172.849189454112 0.030511304494399 172.849189454113 0.956213329223797 134.636182234824 
! Gamma         0                0                0                0                
! Port Impedance         50               0                50               0                
2.148                          0.956508485088121 134.383851375709 0.0304952857167765 172.534739870199 0.0304952857167765 172.534739870199 0.956156822245701 134.412360162671 
! Gamma         0                0                0                0                
! Port Impedance         50               0                50               0                
2.15                           0.956451970019318 134.159838062972 0.0304790554307316 172.219857713647 0.0304790554307317 172.219857713647 0.956100178875161 134.188459356867 
! Gamma         0                0                0                0                
! Port Impedance         50               0                50               0                
2.152                          0.956395319402663 133.935745543035 0.0304626128393679 171.904537873046 0.030462612839368 171.904537873046 0.956043398229038 133.964479668161 
! Gamma         0                0                0                0                
! Port Impedance         50               0                50               0                
2.154                          0.956338532376611 133.71157366481  0.030445957143787 171.588775167865 0.0304459571437871 171.588775167866 0.955986479420007 133.740420946897 
! Gamma         0                0                0                0                
! Port Impedance         50               0                50               0                
2.156                          0.956281608075338 133.487322276775 0.0304290875431619 171.272564347319 0.030429087543162 171.272564347319 0.955929421556487 133.516283042992 
! Gamma         0                0                0                0                
! Port Impedance         50               0                50               0                
2.158                          0.956224545628663 133.262991226967 0.0304120032348124 170.955900089206 0.0304120032348125 170.955900089206 0.955872223742561 133.29206580593  
! Gamma         0                0                0                0                
! Port Impedance         50               0                50               0                
2.16                           0.956167344161976 133.038580362964 0.0303947034142856 170.638776998734 0.0303947034142857 170.638776998734 0.955814885077899 133.067769084739 
! Gamma         0                0                0                0                
! Port Impedance         50               0                50               0                
2.162                          0.956110002796148 132.814089531868 0.0303771872754382 170.321189607314 0.0303771872754383 170.321189607314 0.955757404657677 132.843392727978 