! Touchstone file exported from HFSS 2022.1.0
!        File:           C:/Users/Hamza Safder/Downloads/PSF-V2 with holder (4).aedt
!        Generated:      2:19:43 AM  Sep 30, 2023
!        Design:         HFSSDesign1
!        Project:        PSF-V2 with holder (4)
!        Setup:          Setup1
!        Solution:       Sweep
!
! Variables:
!        WS = 5mm
!        ax = 15mm
!        az = 3.18mm
!        azd = 3mm
!        bx = 13mm
!        bx2 = 12.5mm
!        bx3 = 3.16mm
!        cin = 27.8mm
!        gap = 0.7mm
!        mid = 3mm
!        shift = 21.24mm
!        strip_1L = 18.62mm
!        substrate_L = 80mm
!        substrate_W = 70mm
!        t = 3mm
!        w50 = 9.18mm
!        wt = 1mm
!        xs = 0.8mm
!        zzz = 8mm
!
# GHz S MA R 50.000000
! Terminal data exported
! Port[1] = ground_T1
! Port[2] = ground_T2
2                              0.9595431871402  150.55360882209  0.0283871924278866 -168.755440676467 0.0283871924278867 -168.755440676468 0.959197290001292 150.575472321517 
! Gamma         0                0                0                0                
! Port Impedance         50               0                50               0                
2.002                          0.959489277286572 150.334038089504 0.0283725426263329 -169.075265791727 0.0283725426263331 -169.075265791727 0.959143278509075 150.35599816987  
! Gamma         0                0                0                0                
! Port Impedance         50               0                50               0                
2.004                          0.959435242342523 150.114391589821 0.0283576598814011 -169.395539363709 0.0283576598814013 -169.39553936371 0.959089141990395 150.136448519077 
! Gamma         0                0                0                0                
! Port Impedance         50               0                50               0                
2.006                          0.959381081128708 149.894669107216 0.0283425431344306 -169.716266838156 0.0283425431344308 -169.716266838157 0.959034879237612 149.916823154762 
! Gamma         0                0                0                0                
! Port Impedance         50               0                50               0                
2.008                          0.959326792456959 149.674870425236 0.0283271913220798 -170.037453736962 0.02832719132208 -170.037453736962 0.958980489034232 149.697121861926 
! Gamma         0                0                0                0                
! Port Impedance         50               0                50               0                
2.01                           0.959272375130159 149.454995326782 0.028311603376363 -170.359105659495 0.0283116033763633 -170.359105659495 0.958925970154783 149.477344424938 
! Gamma         0                0                0                0                
! Port Impedance         50               0                50               0                
2.012                          0.959217827942109 149.235043594098 0.0282957782246907 -170.68122828395 0.028295778224691 -170.68122828395 0.958871321364684 149.257490627515 
! Gamma         0                0                0                0                
! Port Impedance         50               0                50               0                
2.014                          0.959163149677398 149.015015008753 0.0282797147899125 -171.003827368724 0.0282797147899128 -171.003827368724 0.958816541420115 149.037560252713 
! Gamma         0                0                0                0                
! Port Impedance         50               0                50               0                
2.016                          0.95910833911127 148.794909351632 0.0282634119903634 -171.326908753826 0.0282634119903636 -171.326908753826 0.95876162906788 148.817553082907 
! Gamma         0                0                0                0                
! Port Impedance         50               0                50               0                
2.018                          0.959053395009481 148.574726402913 0.0282468687399133 -171.650478362305 0.0282468687399136 -171.650478362306 0.958706583045275 148.597468899779 
! Gamma         0                0                0                0                
! Port Impedance         50               0                50               0                
2.02                           0.958998316128163 148.354465942059 0.02823008394802 -171.974542201722 0.0282300839480203 -171.974542201722 0.958651402079939 148.377307484303 
! Gamma         0                0                0                0                
! Port Impedance         50               0                50               0                
2.022                          0.95894310121368 148.134127747797 0.0282130565197855 -172.299106365635 0.0282130565197858 -172.299106365635 0.95859608488972 148.157068616728 
! Gamma         0                0                0                0                
! Port Impedance         50               0                50               0                
2.024                          0.958887749002479 147.913711598105 0.0281957853560158 -172.624177035129 0.0281957853560161 -172.624177035129 0.958540630182522 147.936752076561 
! Gamma         0                0                0                0                
! Port Impedance         50               0                50               0                
2.026                          0.95883225822094 147.693217270194 0.0281782693532849 -172.949760480367 0.0281782693532853 -172.949760480368 0.958485036656161 147.716357642556 
! Gamma         0                0                0                0                
! Port Impedance         50               0                50               0                
2.028                          0.958776627585231 147.472644540494 0.0281605074040028 -173.275863062183 0.0281605074040031 -173.275863062184 0.958429302998208 147.49588509269  
! Gamma         0                0                0                0                
! Port Impedance         50               0                50               0                
2.03                           0.958720855801141 147.251993184634 0.0281424983964867 -173.602491233697 0.028142498396487 -173.602491233697 0.958373427885842 147.275334204153 
! Gamma         0                0                0                0                
! Port Impedance         50               0                50               0                
2.032                          0.958664941563934 147.031262977425 0.0281242412150374 -173.92965154197 0.0281242412150378 -173.92965154197 0.95831740998568 147.054704753326 
! Gamma         0                0                0                0                
! Port Impedance         50               0                50               0                
2.034                          0.958608883558175 146.810453692848 0.0281057347400196 -174.257350629692 0.02810573474002 -174.257350629693 0.958261247953627 146.833996515768 
! Gamma         0                0                0                0                
! Port Impedance         50               0                50               0                
2.036                          0.958552680457572 146.589565104028 0.028086977847947 -174.585595236908 0.0280869778479474 -174.585595236909 0.958204940434704 146.613209266194 
! Gamma         0                0                0                0                
! Port Impedance         50               0                50               0                
2.038                          0.958496330924806 146.368596983221 0.0280679694115714 -174.914392202772 0.0280679694115718 -174.914392202772 0.95814848606288 146.392342778462 
! Gamma         0                0                0                0                
! Port Impedance         50               0                50               0                
2.04                           0.958439833611357 146.147549101796 0.0280487082999779 -175.243748467344 0.0280487082999783 -175.243748467345 0.958091883460905 146.171396825548 
! Gamma         0                0                0                0                
! Port Impedance         50               0                50               0                
2.042                          0.95838318715733 145.926421230213 0.028029193378684 -175.573671073428 0.0280291933786845 -175.573671073428 0.958035131240128 145.950371179535 
! Gamma         0                0                0                0                
! Port Impedance         50               0                50               0                
2.044                          0.958326390191275 145.705213138006 0.0280094235097448 -175.904167168436 0.0280094235097453 -175.904167168436 0.957978228000325 145.729265611587 
! Gamma         0                0                0                0                
! Port Impedance         50               0                50               0                
2.046                          0.958269441330002 145.483924593765 0.0279893975518629 -176.235244006306 0.0279893975518634 -176.235244006306 0.95792117232951 145.508079891935 
! Gamma         0                0                0                0                
! Port Impedance         50               0                50               0                
2.048                          0.958212339178399 145.262555365112 0.0279691143605047 -176.566908949448 0.0279691143605051 -176.566908949448 0.957863962803752 145.286813789855 
! Gamma         0                0                0                0                
! Port Impedance         50               0                50               0                
2.05                           0.958155082329236 145.041105218685 0.0279485727880219 -176.899169470742 0.0279485727880223 -176.899169470742 0.957806597986985 145.065467073647 
! Gamma         0                0                0                0                
! Port Impedance         50               0                50               0                
2.052                          0.958097669362972 144.819573920117 0.0279277716837796 -177.232033155567 0.0279277716837801 -177.232033155567 0.957749076430811 144.844039510618 
! Gamma         0                0                0                0                
! Port Impedance         50               0                50               0                
2.054                          0.958040098847559 144.59796123401  0.0279067098942906 -177.565507703886 0.0279067098942911 -177.565507703886 0.957691396674304 144.622530867056 
! Gamma         0                0                0                0                
! Port Impedance         50               0                50               0                
2.056                          0.957982369338234 144.376266923923 0.0278853862633557 -177.89960093236 0.0278853862633561 -177.899600932361 0.957633557243807 144.400940908216 
! Gamma         0                0                0                0                
! Port Impedance         50               0                50               0                
2.058                          0.957924479377317 144.154490752342 0.0278637996322113 -178.234320776526 0.0278637996322118 -178.234320776526 0.957575556652725 144.179269398292 
! Gamma         0                0                0                0                
! Port Impedance         50               0                50               0                
2.06                           0.957866427493995 143.932632480661 0.0278419488396842 -178.569675293   0.0278419488396847 -178.569675293   0.957517393401314 143.957516100398 
! Gamma         0                0                0                0                
! Port Impedance         50               0                50               0                
2.062                          0.95780821220411 143.710691869163 0.0278198327223531 -178.905672661748 0.0278198327223536 -178.905672661748 0.957459065976465 143.735680776546 
! Gamma         0                0                0                0                
! Port Impedance         50               0                50               0                
2.064                          0.957749832009936 143.48866867699  0.0277974501147179 -179.242321188389 0.0277974501147184 -179.242321188389 0.957400572851486 143.513763187622 
! Gamma         0                0                0                0                
! Port Impedance         50               0                50               0                
2.066                          0.957691285399955 143.266562662127 0.027774799849377 -179.579629306559 0.0277747998493775 -179.57962930656 0.957341912485875 143.291763093366 
! Gamma         0                0                0                0                
! Port Impedance         50               0                50               0                
2.068                          0.957632570848628 143.044373581375 0.0277518807572123 -179.917605580322 0.0277518807572129 -179.917605580323 0.957283083325093 143.069680252343 
! Gamma         0                0                0                0                
! Port Impedance         50               0                50               0                
2.07                           0.957573686816158 142.822101190327 0.0277286916675832 179.74374129337  0.0277286916675838 179.74374129337  0.957224083800326 142.847514421927 
! Gamma         0                0                0                0                
! Port Impedance         50               0                50               0                
2.072                          0.957514631748255 142.599745243342 0.0277052314085287 179.40440248216  0.0277052314085292 179.40440248216  0.957164912328254 142.625265358267 
! Gamma         0                0                0                0                
! Port Impedance         50               0                50               0                
2.074                          0.957455404075887 142.377305493525 0.0276814988069786 179.064369015713 0.0276814988069791 179.064369015713 0.957105567310795 142.402932816271 
! Gamma         0                0                0                0                
! Port Impedance         50               0                50               0                
2.076                          0.95739600221503 142.154781692698 0.0276574926889747 178.72363178309  0.0276574926889753 178.72363178309  0.957046047134868 142.180516549577 
! Gamma         0                0                0                0                
! Port Impedance         50               0                50               0                
2.078                          0.95733642456642 141.932173591373 0.0276332118799011 178.382181530065 0.0276332118799017 178.382181530065 0.956986350172132 141.958016310526 
! Gamma         0                0                0                0                
! Port Impedance         50               0                50               0                
2.08                           0.957276669515285 141.70948093873  0.0276086552047244 178.040008856381 0.027608655204725 178.040008856381 0.956926474778724 141.735431850139 
! Gamma         0                0                0                0                
! Port Impedance         50               0                50               0                
2.082                          0.957216735431082 141.486703482587 0.0275838214882451 177.697104212948 0.0275838214882457 177.697104212948 0.956866419295001 141.512762918089 
! Gamma         0                0                0                0                
! Port Impedance         50               0                50               0                
2.084                          0.957156620667226 141.263840969375 0.0275587095553587 177.353457898976 0.0275587095553593 177.353457898976 0.956806182045261 141.290009262674 
! Gamma         0                0                0                0                
! Port Impedance         50               0                50               0                
2.086                          0.957096323560814 141.040893144107 0.0275333182313294 177.009060059052 0.02753331823133 177.009060059052 0.956745761337474 141.067170630788 
! Gamma         0                0                0                0                
! Port Impedance         50               0                50               0                
2.088                          0.957035842432338 140.817859750355 0.027507646342074 176.663900680142 0.0275076463420746 176.663900680142 0.956685155462993 140.844246767898 
! Gamma         0                0                0                0                
! Port Impedance         50               0                50               0                
2.09                           0.956975175585399 140.594740530215 0.0274816927144587 176.317969588541 0.0274816927144593 176.317969588541 0.956624362696268 140.621237418009 
! Gamma         0                0                0                0                
! Port Impedance         50               0                50               0                
2.092                          0.956914321306413 140.371535224285 0.027455456176608 175.971256446738 0.0274554561766086 175.971256446738 0.956563381294552 140.39814232364  
! Gamma         0                0                0                0                
! Port Impedance         50               0                50               0                
2.094                          0.956853277864304 140.148243571628 0.027428935558227 175.62375075023  0.0274289355582276 175.62375075023  0.956502209497597 140.174961225791 
! Gamma         0                0                0                0                
! Port Impedance         50               0                50               0                
2.096                          0.956792043510202 139.924865309749 0.0274021296909362 175.275441824249 0.0274021296909368 175.275441824249 0.95644084552735 139.951693863917 
! Gamma         0                0                0                0                
! Port Impedance         50               0                50               0                
2.098                          0.956730616477125 139.701400174558 0.0273750374086214 174.92631882043  0.027375037408622 174.92631882043  0.956379287587636 139.728339975893 
! Gamma         0                0                0                0                
! Port Impedance         50               0                50               0                
2.1                            0.956668994979656 139.477847900342 0.0273476575477965 174.576370713392 0.0273476575477971 174.576370713392 0.95631753386384 139.504899297986 
! Gamma         0                0                0                0                
! Port Impedance         50               0                50               0                
2.102                          0.956607177213621 139.254208219733 0.0273199889479828 174.225586297254 0.0273199889479834 174.225586297254 0.956255582522575 139.281371564822 
! Gamma         0                0                0                0                
! Port Impedance         50               0                50               0                
2.104                          0.956545161355747 139.030480863675 0.0272920304521025 173.873954182065 0.0272920304521031 173.873954182065 0.95619343171135 139.057756509354 
! Gamma         0                0                0                0                
! Port Impedance         50               0                50               0                
2.106                          0.956482945563321 138.806665561391 0.027263780906889 173.52146279016  0.0272637809068896 173.52146279016  0.956131079558229 138.834053862831 
! Gamma         0                0                0                0                
! Port Impedance         50               0                50               0                
2.108                          0.956420527973844 138.582762040351 0.0272352391633133 173.168100352429 0.0272352391633139 173.168100352429 0.956068524171477 138.610263354761 
! Gamma         0                0                0                0                
! Port Impedance         50               0                50               0                
2.11                           0.956357906704668 138.358770026232 0.0272064040770282 172.813854904507 0.0272064040770288 172.813854904507 0.956005763639208 138.386384712879 
! Gamma         0                0                0                0                
! Port Impedance         50               0                50               0                
2.112                          0.956295079852634 138.134689242894 0.0271772745088295 172.458714282873 0.0271772745088301 172.458714282873 0.955942796029016 138.162417663114 
! Gamma         0                0                0                0                
! Port Impedance         50               0                50               0                
2.114                          0.956232045493696 137.910519412332 0.0271478493251366 172.10266612087  0.0271478493251372 172.10266612087  0.955879619387606 137.938361929551 
! Gamma         0                0                0                0                
! Port Impedance         50               0                50               0                
2.116                          0.956168801682544 137.686260254651 0.027118127398492 171.745697844621 0.0271181273984926 171.745697844621 0.95581623174041 137.714217234396 
! Gamma         0                0                0                0                
! Port Impedance         50               0                50               0                
2.118                          0.95610534645221 137.461911488021 0.02708810760808 171.387796668872 0.0270881076080806 171.387796668872 0.955752631091199 137.489983297942 
! Gamma         0                0                0                0                
! Port Impedance         50               0                50               0                
2.12                           0.956041677813671 137.237472828645 0.0270577888402671 171.028949592721 0.0270577888402677 171.028949592721 0.955688815421686 137.265659838527 
! Gamma         0                0                0                0                
! Port Impedance         50               0                50               0                
2.122                          0.955977793755444 137.012943990719 0.027027169989163 170.669143395265 0.0270271699891636 170.669143395265 0.955624782691117 137.041246572502 
! Gamma         0                0                0                0                
! Port Impedance         50               0                50               0                
2.124                          0.955913692243166 136.788324686392 0.0269962499572041 170.308364631141 0.0269962499572047 170.308364631141 0.95556053083586 136.816743214187 
! Gamma         0                0                0                0                
! Port Impedance         50               0                50               0                
2.126                          0.955849371219175 136.563614625729 0.0269650276557596 169.94659962597  0.0269650276557602 169.946599625969 0.955496057768977 136.592149475837 
! Gamma         0                0                0                0                
! Port Impedance         50               0                50               0                
2.128                          0.955784828602069 136.338813516671 0.0269335020057621 169.583834471693 0.0269335020057626 169.583834471693 0.95543136137979 136.367465067596 
! Gamma         0                0                0                0                
! Port Impedance         50               0                50               0                
2.13                           0.955720062286267 136.11392106499  0.0269016719383619 169.220055021808 0.0269016719383625 169.220055021808 0.955366439533443 136.142689697465 
! Gamma         0                0                0                0                
! Port Impedance         50               0                50               0                
2.132                          0.955655070141554 135.888936974253 0.026869536395608 168.855246886489 0.0268695363956086 168.855246886489 0.95530129007044 135.917823071251 
! Gamma         0                0                0                0                
! Port Impedance         50               0                50               0                
2.134                          0.955589850012616 135.663860945777 0.0268370943311545 168.489395427603 0.0268370943311551 168.489395427603 0.955235910806191 135.692864892533 
! Gamma         0                0                0                0                
! Port Impedance         50               0                50               0                
2.136                          0.955524399718568 135.438692678586 0.0268043447109953 168.122485753609 0.0268043447109959 168.122485753609 0.95517029953053 135.467814862613 
! Gamma         0                0                0                0                
! Port Impedance         50               0                50               0                
2.138                          0.955458717052466 135.213431869367 0.0267712865142272 167.754502714341 0.0267712865142277 167.75450271434  0.95510445400724 135.242672680479 
! Gamma         0                0                0                0                
! Port Impedance         50               0                50               0                
2.14                           0.955392799780818 134.988078212424 0.026737918733842 167.385430895672 0.0267379187338426 167.385430895672 0.95503837197355 135.017438042754 
! Gamma         0                0                0                0                
! Port Impedance         50               0                50               0                
2.142                          0.955326645643071 134.762631399638 0.0267042403775503 167.015254614063 0.0267042403775508 167.015254614062 0.954972051139635 134.792110643655 
! Gamma         0                0                0                0                
! Port Impedance         50               0                50               0                
2.144                          0.955260252351096 134.537091120414 0.0266702504686358 166.643957910971 0.0266702504686364 166.64395791097  0.954905489188097 134.566690174945 
! Gamma         0                0                0                0                
! Port Impedance         50               0                50               0                
2.146                          0.955193617588659 134.311457061638 0.0266359480468437 166.27152454715  0.0266359480468443 166.27152454715  0.954838683773435 134.34117632589  
! Gamma         0                0                0                0                
! Port Impedance         50               0                50               0                
2.148                          0.955126739010881 134.085728907627 0.0266013321693029 165.897937996808 0.0266013321693034 165.897937996808 0.954771632521506 134.115568783205 
! Gamma         0                0                0                0                
! Port Impedance         50               0                50               0                
2.15                           0.955059614243683 133.859906340084 0.0265664019114829 165.523181441634 0.0265664019114834 165.523181441634 0.954704333028973 133.889867231011 
! Gamma         0                0                0                0                
! Port Impedance         50               0                50               0                
2.152                          0.954992240883219 133.633989038042 0.0265311563681889 165.147237764692 0.0265311563681895 165.147237764692 0.95463678286274 133.664071350783 
! Gamma         0                0                0                0                
! Port Impedance         50               0                50               0                
2.154                          0.954924616495302 133.407976677818 0.0264955946545937 164.770089544173 0.0264955946545943 164.770089544172 0.95456897955937 133.4381808213   
! Gamma         0                0                0                0                
! Port Impedance         50               0                50               0                
2.156                          0.954856738614807 133.181868932961 0.0264597159073101 164.391719047001 0.0264597159073107 164.391719047001 0.954500920624501 133.212195318596 
! Gamma         0                0                0                0                
! Port Impedance         50               0                50               0                
2.158                          0.954788604745069 132.955665474199 0.0264235192855033 164.012108222304 0.0264235192855039 164.012108222304 0.954432603532236 132.986114515904 
! Gamma         0                0                0                0                
! Port Impedance         50               0                50               0                
2.16                           0.954720212357266 132.729365969384 0.0263870039720469 163.631238694725 0.0263870039720475 163.631238694725 0.954364025724529 132.759938083605 
! Gamma         0                0                0                0                
! Port Impedance         50               0                50               0                
2.162                          0.954651558889782 132.502970083441 0.0263501691747223 163.249091757585 0.0263501691747228 163.249091757585 0.954295184610548 132.533665689175 
! Gamma         0                0                0                0                