! Touchstone file exported from HFSS 2022.1.0
!        File:           C:/Users/Hamza Safder/Downloads/PSF-V2 with holder (2).aedt
!        Generated:      11:27:56 PM  Sep 21, 2023
!        Design:         HFSSDesign1
!        Project:        PSF-V2 with holder (2)
!        Setup:          Setup1
!        Solution:       Sweep
!
! Variables:
!        WS = 5mm
!        ax = 15mm
!        az = 3.18mm
!        azd = 3mm
!        bx = 13mm
!        bx2 = 12.5mm
!        bx3 = 3.16mm
!        cin = 27.8mm
!        gap = 0.7mm
!        mid = 3mm
!        shift = 21.24mm
!        strip_1L = 18.62mm
!        substrate_L = 80mm
!        substrate_W = 70mm
!        t = 3mm
!        w50 = 9.18mm
!        wt = 1mm
!        xs = 0.8mm
!        zzz = 8mm
!
# GHz S MA R 50.000000
! Terminal data exported
! Port[1] = ground_T1
! Port[2] = ground_T2
2                              0.960614595456921 150.819855342514 0.0324226188202952 -163.651748410808 0.0324226188202951 -163.651748410808 0.960523690709412 150.871437748808 
! Gamma         0                0                0                0                
! Port Impedance         50               0                50               0                
2.002                          0.960568003259411 150.601665763976 0.0324232849464657 -163.936516955647 0.0324232849464655 -163.936516955647 0.960476927789735 150.653265528268 
! Gamma         0                0                0                0                
! Port Impedance         50               0                50               0                
2.004                          0.960521335430516 150.383409799196 0.0324238381433799 -164.221416703562 0.0324238381433797 -164.221416703562 0.960430088449458 150.435026245811 
! Gamma         0                0                0                0                
! Port Impedance         50               0                50               0                
2.006                          0.960474591420473 150.165087322496 0.0324242777518251 -164.506449031422 0.0324242777518248 -164.506449031422 0.960383172137156 150.216719774075 
! Gamma         0                0                0                0                
! Port Impedance         50               0                50               0                
2.008                          0.960427770679189 149.946698208562 0.0324246031112102 -164.791615329434 0.0324246031112099 -164.791615329435 0.960336178301121 149.998345986069 
! Gamma         0                0                0                0                
! Port Impedance         50               0                50               0                
2.01                           0.960380872656251 149.728242332443 0.0324248135595576 -165.076917001326 0.0324248135595571 -165.076917001327 0.960289106389371 149.779904755166 
! Gamma         0                0                0                0                
! Port Impedance         50               0                50               0                
2.012                          0.960333896800931 149.509719569551 0.0324249084334942 -165.362355464531 0.0324249084334937 -165.362355464532 0.960241955849649 149.561395955109 
! Gamma         0                0                0                0                
! Port Impedance         50               0                50               0                
2.014                          0.960286842562189 149.291129795659 0.0324248870682437 -165.647932150376 0.0324248870682431 -165.647932150377 0.960194726129436 149.342819460004 
! Gamma         0                0                0                0                
! Port Impedance         50               0                50               0                
2.016                          0.960239709388682 149.072472886899 0.0324247487976177 -165.933648504273 0.032424748797617 -165.933648504274 0.960147416675952 149.124175144324 
! Gamma         0                0                0                0                
! Port Impedance         50               0                50               0                
2.018                          0.960192496728768 148.853748719762 0.0324244929540073 -166.21950598591 0.0324244929540067 -166.219505985911 0.960100026936164 148.905462882902 
! Gamma         0                0                0                0                
! Port Impedance         50               0                50               0                
2.02                           0.960145204030511 148.634957171095 0.0324241188683751 -166.505506069453 0.0324241188683743 -166.505506069454 0.960052556356792 148.686682550934 
! Gamma         0                0                0                0                
! Port Impedance         50               0                50               0                
2.022                          0.960097830741688 148.416098118102 0.032423625870246 -166.791650243736 0.0324236258702452 -166.791650243738 0.960005004384309 148.467834023978 
! Gamma         0                0                0                0                
! Port Impedance         50               0                50               0                
2.024                          0.960050376309789 148.19717143834  0.0324230132876996 -167.077940012474 0.0324230132876988 -167.077940012475 0.959957370464953 148.248917177947 
! Gamma         0                0                0                0                
! Port Impedance         50               0                50               0                
2.026                          0.960002840182029 147.97817700972  0.0324222804473612 -167.364376894456 0.0324222804473602 -167.364376894458 0.959909654044728 148.029931889114 
! Gamma         0                0                0                0                
! Port Impedance         50               0                50               0                
2.028                          0.959955221805347 147.759114710501 0.0324214266743935 -167.650962423763 0.0324214266743926 -167.650962423764 0.959861854569411 147.810878034106 
! Gamma         0                0                0                0                
! Port Impedance         50               0                50               0                
2.03                           0.959907520626413 147.539984419295 0.0324204512924885 -167.937698149971 0.0324204512924875 -167.937698149973 0.959813971484553 147.591755489906 
! Gamma         0                0                0                0                
! Port Impedance         50               0                50               0                
2.032                          0.959859736091632 147.320786015058 0.0324193536238588 -168.224585638371 0.0324193536238577 -168.224585638372 0.959766004235489 147.372564133848 
! Gamma         0                0                0                0                
! Port Impedance         50               0                50               0                
2.034                          0.959811867647148 147.101519377094 0.0324181329892292 -168.511626470179 0.0324181329892281 -168.51162647018 0.959717952267335 147.153303843615 
! Gamma         0                0                0                0                
! Port Impedance         50               0                50               0                
2.036                          0.959763914738848 146.882184385051 0.0324167887078288 -168.798822242762 0.0324167887078277 -168.798822242764 0.959669815025001 146.93397449724  
! Gamma         0                0                0                0                
! Port Impedance         50               0                50               0                
2.038                          0.959715876812367 146.662780918918 0.0324153200973823 -169.08617456986 0.0324153200973811 -169.086174569861 0.959621591953188 146.714575973103 
! Gamma         0                0                0                0                
! Port Impedance         50               0                50               0                
2.04                           0.959667753313089 146.443308859024 0.0324137264741019 -169.373685081809 0.0324137264741007 -169.37368508181 0.959573282496394 146.495108149929 
! Gamma         0                0                0                0                
! Port Impedance         50               0                50               0                
2.042                          0.959619543686152 146.223768086035 0.0324120071526792 -169.661355425774 0.032412007152678 -169.661355425776 0.959524886098919 146.275570906784 
! Gamma         0                0                0                0                
! Port Impedance         50               0                50               0                
2.044                          0.959571247376456 146.004158480956 0.032410161446277 -169.949187265983 0.0324101614462757 -169.949187265984 0.959476402204865 146.055964123075 
! Gamma         0                0                0                0                
! Port Impedance         50               0                50               0                
2.046                          0.959522863828656 145.784479925122 0.032408188666521 -170.237182283959 0.0324081886665197 -170.23718228396 0.959427830258145 145.836287678548 
! Gamma         0                0                0                0                
! Port Impedance         50               0                50               0                
2.048                          0.959474392487175 145.564732300201 0.0324060881234922 -170.525342178764 0.0324060881234908 -170.525342178766 0.95937916970248 145.616541453284 
! Gamma         0                0                0                0                
! Port Impedance         50               0                50               0                
2.05                           0.959425832796199 145.344915488189 0.0324038591257186 -170.813668667243 0.0324038591257172 -170.813668667245 0.959330419981404 145.396725327699 
! Gamma         0                0                0                0                
! Port Impedance         50               0                50               0                
2.052                          0.959377184199685 145.125029371411 0.0324015009801676 -171.102163484268 0.0324015009801662 -171.10216348427 0.959281580538268 145.176839182539 
! Gamma         0                0                0                0                
! Port Impedance         50               0                50               0                
2.054                          0.959328446141361 144.905073832512 0.032399012992238 -171.39082838299 0.0323990129922365 -171.390828382992 0.959232650816243 144.956882898879 
! Gamma         0                0                0                0                
! Port Impedance         50               0                50               0                
2.056                          0.959279618064729 144.685048754462 0.0323963944657524 -171.679665135096 0.0323963944657509 -171.679665135098 0.959183630258318 144.736856358122 
! Gamma         0                0                0                0                
! Port Impedance         50               0                50               0                
2.058                          0.959230699413064 144.464954020548 0.0323936447029496 -171.968675531063 0.0323936447029481 -171.968675531065 0.959134518307305 144.516759441991 
! Gamma         0                0                0                0                
! Port Impedance         50               0                50               0                
2.06                           0.959181689629422 144.244789514374 0.0323907630044773 -172.257861380425 0.0323907630044757 -172.257861380427 0.959085314405841 144.296592032533 
! Gamma         0                0                0                0                
! Port Impedance         50               0                50               0                
2.062                          0.959132588156633 144.024555119857 0.0323877486693843 -172.547224512035 0.0323877486693827 -172.547224512037 0.95903601799639 144.076354012112 
! Gamma         0                0                0                0                
! Port Impedance         50               0                50               0                
2.064                          0.95908339443731 143.804250721224 0.0323846009951138 -172.836766774338 0.0323846009951122 -172.83676677434 0.958986628521242 143.856045263407 
! Gamma         0                0                0                0                
! Port Impedance         50               0                50               0                
2.066                          0.959034107913845 143.583876203009 0.0323813192774959 -173.126490035642 0.0323813192774942 -173.126490035644 0.958937145422515 143.635665669409 
! Gamma         0                0                0                0                
! Port Impedance         50               0                50               0                
2.068                          0.958984728028412 143.363431450052 0.0323779028107408 -173.416396184402 0.032377902810739 -173.416396184404 0.958887568142156 143.415215113419 
! Gamma         0                0                0                0                
! Port Impedance         50               0                50               0                
2.07                           0.958935254222967 143.142916347494 0.0323743508874318 -173.706487129496 0.03237435088743 -173.706487129498 0.958837896121943 143.194693479043 
! Gamma         0                0                0                0                
! Port Impedance         50               0                50               0                
2.072                          0.958885685939246 142.922330780773 0.0323706627985191 -173.996764800515 0.0323706627985173 -173.996764800517 0.958788128803482 142.974100650191 
! Gamma         0                0                0                0                
! Port Impedance         50               0                50               0                
2.074                          0.958836022618772 142.701674635623 0.0323668378333128 -174.287231148055 0.032366837833311 -174.287231148057 0.95873826562821 142.753436511073 
! Gamma         0                0                0                0                
! Port Impedance         50               0                50               0                
2.076                          0.958786263702845 142.480947798068 0.0323628752794768 -174.57788814401 0.0323628752794749 -174.577888144012 0.958688306037394 142.532700946193 
! Gamma         0                0                0                0                
! Port Impedance         50               0                50               0                
2.078                          0.958736408632548 142.260150154421 0.0323587744230228 -174.868737781875 0.0323587744230209 -174.868737781877 0.95863824947213 142.311893840349 
! Gamma         0                0                0                0                
! Port Impedance         50               0                50               0                
2.08                           0.958686456848745 142.03928159128  0.0323545345483042 -175.159782077048 0.0323545345483024 -175.15978207705 0.958588095373342 142.091015078628 
! Gamma         0                0                0                0                
! Port Impedance         50               0                50               0                
2.082                          0.958636407792077 141.818341995523 0.0323501549380106 -175.45102306714 0.0323501549380088 -175.451023067142 0.95853784318178 141.870064546404 
! Gamma         0                0                0                0                
! Port Impedance         50               0                50               0                
2.084                          0.958586260902966 141.597331254304 0.0323456348731622 -175.74246281229 0.0323456348731603 -175.742462812292 0.958487492338022 141.64904212933  
! Gamma         0                0                0                0                
! Port Impedance         50               0                50               0                
2.086                          0.958536015621608 141.376249255053 0.0323409736331043 -176.034103395485 0.0323409736331024 -176.034103395487 0.958437042282469 141.42794771334  
! Gamma         0                0                0                0                
! Port Impedance         50               0                50               0                
2.088                          0.958485671387973 141.155095885466 0.0323361704955029 -176.325946922879 0.032336170495501 -176.325946922881 0.958386492455346 141.206781184639 
! Gamma         0                0                0                0                
! Port Impedance         50               0                50               0                
2.09                           0.958435227641803 140.933871033507 0.0323312247363396 -176.617995524128 0.0323312247363376 -176.61799552413 0.958335842296694 140.985542429705 
! Gamma         0                0                0                0                
! Port Impedance         50               0                50               0                
2.092                          0.958384683822611 140.712574587399 0.032326135629907 -176.910251352719 0.032326135629905 -176.910251352721 0.958285091246376 140.764231335279 
! Gamma         0                0                0                0                
! Port Impedance         50               0                50               0                
2.094                          0.958334039369671 140.491206435625 0.0323209024488049 -177.202716586311 0.0323209024488029 -177.202716586314 0.958234238744064 140.542847788366 
! Gamma         0                0                0                0                
! Port Impedance         50               0                50               0                
2.096                          0.958283293722025 140.269766466916 0.0323155244639362 -177.495393427082 0.0323155244639342 -177.495393427084 0.958183284229246 140.321391676228 
! Gamma         0                0                0                0                
! Port Impedance         50               0                50               0                
2.098                          0.958232446318472 140.048254570256 0.0323100009445033 -177.788284102072 0.0323100009445013 -177.788284102075 0.958132227141214 140.099862886378 
! Gamma         0                0                0                0                
! Port Impedance         50               0                50               0                
2.1                            0.958181496597565 139.82667063487  0.0323043311580052 -178.081390863546 0.0323043311580032 -178.081390863548 0.958081066919065 139.87826130658  
! Gamma         0                0                0                0                
! Port Impedance         50               0                50               0                
2.102                          0.958130443997609 139.605014550222 0.0322985143702342 -178.374715989349 0.0322985143702321 -178.374715989351 0.958029803001693 139.65658682484  
! Gamma         0                0                0                0                
! Port Impedance         50               0                50               0                
2.104                          0.958079287956655 139.383286206012 0.0322925498452735 -178.668261783275 0.0322925498452715 -178.668261783278 0.957978434827789 139.434839329404 
! Gamma         0                0                0                0                
! Port Impedance         50               0                50               0                
2.106                          0.958028027912494 139.161485492168 0.0322864368454955 -178.96203057544 0.0322864368454934 -178.962030575443 0.957926961835829 139.213018708753 
! Gamma         0                0                0                0                
! Port Impedance         50               0                50               0                
2.108                          0.957976663302653 138.939612298844 0.0322801746315592 -179.256024722657 0.0322801746315571 -179.25602472266 0.957875383464077 138.991124851595 
! Gamma         0                0                0                0                
! Port Impedance         50               0                50               0                
2.11                           0.957925193564389 138.717666516413 0.0322737624624098 -179.550246608824 0.0322737624624078 -179.550246608826 0.957823699150573 138.769157646864 
! Gamma         0                0                0                0                
! Port Impedance         50               0                50               0                
2.112                          0.95787361813468 138.495648035461 0.0322671995952772 -179.84469864531 0.0322671995952751 -179.844698645313 0.957771908333127 138.547116983713 
! Gamma         0                0                0                0                
! Port Impedance         50               0                50               0                
2.114                          0.957821936450223 138.273556746786 0.0322604852856756 179.860616728644 0.0322604852856735 179.860616728642 0.957720010449315 138.325002751508 
! Gamma         0                0                0                0                
! Port Impedance         50               0                50               0                
2.116                          0.957770147947424 138.051392541387 0.0322536187874038 179.565697045527 0.0322536187874016 179.565697045524 0.957668004936472 138.102814839824 
! Gamma         0                0                0                0                
! Port Impedance         50               0                50               0                
2.118                          0.95771825206239 137.829155310463 0.0322465993525453 179.270539809145 0.0322465993525432 179.270539809142 0.95761589123168 137.880553138439 
! Gamma         0                0                0                0                
! Port Impedance         50               0                50               0                
2.12                           0.957666248230923 137.606844945406 0.0322394262314698 178.975142494207 0.0322394262314676 178.975142494204 0.957563668771767 137.658217537327 
! Gamma         0                0                0                0                
! Port Impedance         50               0                50               0                
2.122                          0.957614135888511 137.384461337792 0.0322320986728342 178.679502545903 0.0322320986728321 178.6795025459   0.95751133699329 137.435807926655 
! Gamma         0                0                0                0                
! Port Impedance         50               0                50               0                
2.124                          0.957561914470318 137.162004379381 0.0322246159235852 178.383617379474 0.0322246159235831 178.383617379472 0.957458895332536 137.213324196776 
! Gamma         0                0                0                0                
! Port Impedance         50               0                50               0                
2.126                          0.957509583411176 136.939473962107 0.0322169772289616 178.087484379777 0.0322169772289595 178.087484379775 0.957406343225504 136.99076623822  
! Gamma         0                0                0                0                
! Port Impedance         50               0                50               0                
2.128                          0.957457142145575 136.716869978074 0.0322091818324976 177.791100900841 0.0322091818324955 177.791100900838 0.957353680107901 136.768133941693 
! Gamma         0                0                0                0                
! Port Impedance         50               0                50               0                
2.13                           0.957404590107653 136.494192319546 0.0322012289760268 177.494464265414 0.0322012289760246 177.494464265412 0.957300905415128 136.545427198068 
! Gamma         0                0                0                0                
! Port Impedance         50               0                50               0                
2.132                          0.957351926731185 136.271440878946 0.0321931178996866 177.197571764513 0.0321931178996844 177.19757176451  0.957248018582271 136.322645898377 
! Gamma         0                0                0                0                
! Port Impedance         50               0                50               0                
2.134                          0.957299151449571 136.048615548846 0.0321848478419236 176.90042065695  0.0321848478419214 176.900420656947 0.957195019044091 136.099789933808 
! Gamma         0                0                0                0                
! Port Impedance         50               0                50               0                
2.136                          0.957246263695826 135.825716221962 0.032176418039499 176.603008168864 0.0321764180394968 176.603008168862 0.957141906235009 135.876859195696 
! Gamma         0                0                0                0                
! Port Impedance         50               0                50               0                
2.138                          0.957193262902567 135.602742791143 0.0321678277274959 176.305331493242 0.0321678277274937 176.30533149324  0.957088679589095 135.653853575518 
! Gamma         0                0                0                0                
! Port Impedance         50               0                50               0                
2.14                           0.957140148502   135.379695149373 0.0321590761393259 176.007387789427 0.0321590761393238 176.007387789425 0.957035338540059 135.430772964883 
! Gamma         0                0                0                0                
! Port Impedance         50               0                50               0                
2.142                          0.957086919925905 135.156573189755 0.0321501625067379 175.709174182623 0.0321501625067358 175.709174182621 0.95698188252123 135.20761725553  
! Gamma         0                0                0                0                
! Port Impedance         50               0                50               0                
2.144                          0.957033576605627 134.933376805507 0.0321410860598265 175.410687763391 0.0321410860598244 175.410687763389 0.95692831096555 134.984386339314 
! Gamma         0                0                0                0                
! Port Impedance         50               0                50               0                
2.146                          0.956980117972058 134.710105889957 0.032131846027042 175.111925587137 0.0321318460270399 175.111925587135 0.956874623305552 134.761080108204 
! Gamma         0                0                0                0                
! Port Impedance         50               0                50               0                
2.148                          0.95692654345562 134.486760336532 0.0321224416352011 174.812884673588 0.032122441635199 174.812884673586 0.956820818973352 134.537698454276 
! Gamma         0                0                0                0                
! Port Impedance         50               0                50               0                
2.15                           0.956872852486257 134.263340038754 0.0321128721094983 174.513562006265 0.0321128721094962 174.513562006262 0.956766897400629 134.3142412697   
! Gamma         0                0                0                0                
! Port Impedance         50               0                50               0                
2.152                          0.956819044493408 134.039844890227 0.0321031366735186 174.21395453194  0.0321031366735164 174.213954531938 0.956712858018609 134.090708446737 
! Gamma         0                0                0                0                
! Port Impedance         50               0                50               0                
2.154                          0.956765118906001 133.816274784635 0.0320932345492503 173.914059160095 0.0320932345492482 173.914059160093 0.956658700258049 133.867099877729 
! Gamma         0                0                0                0                
! Port Impedance         50               0                50               0                
2.156                          0.956711075152429 133.592629615731 0.0320831649571004 173.613872762358 0.0320831649570983 173.613872762356 0.956604423549221 133.643415455093 
! Gamma         0                0                0                0                
! Port Impedance         50               0                50               0                
2.158                          0.956656912660534 133.368909277328 0.0320729271159094 173.313392171941 0.0320729271159073 173.313392171938 0.956550027321889 133.419655071309 
! Gamma         0                0                0                0                
! Port Impedance         50               0                50               0                
2.16                           0.956602630857587 133.145113663291 0.0320625202429679 173.012614183061 0.0320625202429658 173.012614183058 0.956495511005297 133.195818618915 
! Gamma         0                0                0                0                
! Port Impedance         50               0                50               0                
2.162                          0.956548229170271 132.921242667531 0.0320519435540345 172.711535550359 0.0320519435540324 172.711535550356 0.956440874028143 132.971905990498 