! Touchstone file exported from HFSS 2022.1.0
!        File:           C:/Users/Hamza Safder/Downloads/PSF-V2 with holder (4).aedt
!        Generated:      1:58:45 AM  Sep 30, 2023
!        Design:         HFSSDesign1
!        Project:        PSF-V2 with holder (4)
!        Setup:          Setup1
!        Solution:       Sweep
!
! Variables:
!        WS = 5mm
!        ax = 15mm
!        az = 3.18mm
!        azd = 3mm
!        bx = 13mm
!        bx2 = 12.5mm
!        bx3 = 3.16mm
!        cin = 27.8mm
!        gap = 0.7mm
!        mid = 3mm
!        shift = 21.24mm
!        strip_1L = 18.62mm
!        substrate_L = 80mm
!        substrate_W = 70mm
!        t = 3mm
!        w50 = 9.18mm
!        wt = 1mm
!        xs = 0.8mm
!        zzz = 8mm
!
# GHz S MA R 50.000000
! Terminal data exported
! Port[1] = ground_T1
! Port[2] = ground_T2
2                              0.959232846580458 150.569028133515 0.0283176915198966 -167.963867065194 0.0283176915198966 -167.963867065194 0.958888607773003 150.590848099737 
! Gamma         0                0                0                0                
! Port Impedance         50               0                50               0                
2.002                          0.959177315808629 150.349552993858 0.0283021677219216 -168.27893932068 0.0283021677219216 -168.27893932068 0.958832985207347 150.371469405846 
! Gamma         0                0                0                0                
! Port Impedance         50               0                50               0                
2.004                          0.959121648007733 150.130002929988 0.0282864006455855 -168.594417226696 0.0282864006455855 -168.594417226696 0.958777225759599 150.152016055741 
! Gamma         0                0                0                0                
! Port Impedance         50               0                50               0                
2.006                          0.959065841891018 149.910377735265 0.0282703890899677 -168.910305701795 0.0282703890899678 -168.910305701795 0.958721328115788 149.932487844211 
! Gamma         0                0                0                0                
! Port Impedance         50               0                50               0                
2.008                          0.959009896161693 149.690677202546 0.0282541318468354 -169.226609733553 0.0282541318468355 -169.226609733553 0.958665290951886 149.712884565547 
! Gamma         0                0                0                0                
! Port Impedance         50               0                50               0                
2.01                           0.958953809512792 149.470901124177 0.0282376277006246 -169.543334379774 0.0282376277006246 -169.543334379774 0.958609112933673 149.493206013539 
! Gamma         0                0                0                0                
! Port Impedance         50               0                50               0                
2.012                          0.958897580627024 149.251049291977 0.0282208754284232 -169.860484769734 0.0282208754284233 -169.860484769734 0.958552792716587 149.273451981458 
! Gamma         0                0                0                0                
! Port Impedance         50               0                50               0                
2.014                          0.958841208176628 149.031121497228 0.028203873799956 -170.178066105441 0.0282038737999561 -170.178066105441 0.958496328945582 149.053622262048 
! Gamma         0                0                0                0                
! Port Impedance         50               0                50               0                
2.016                          0.958784690823219 148.811117530661 0.0281866215775704 -170.496083662927 0.0281866215775704 -170.496083662927 0.958439720254973 148.833716647509 
! Gamma         0                0                0                0                
! Port Impedance         50               0                50               0                
2.018                          0.958728027217641 148.591037182443 0.0281691175162248 -170.814542793564 0.0281691175162249 -170.814542793564 0.958382965268288 148.61373492949  
! Gamma         0                0                0                0                
! Port Impedance         50               0                50               0                
2.02                           0.958671215999804 148.370880242166 0.0281513603634791 -171.133448925409 0.0281513603634792 -171.133448925409 0.958326062598109 148.39367689907  
! Gamma         0                0                0                0                
! Port Impedance         50               0                50               0                
2.022                          0.958614255798529 148.150646498833 0.0281333488594859 -171.452807564577 0.028133348859486 -171.452807564577 0.958269010845914 148.173542346748 
! Gamma         0                0                0                0                
! Port Impedance         50               0                50               0                
2.024                          0.958557145231381 147.930335740841 0.0281150817369852 -171.772624296641 0.0281150817369853 -171.772624296641 0.958211808601915 147.953331062428 
! Gamma         0                0                0                0                
! Port Impedance         50               0                50               0                
2.026                          0.958499882904509 147.709947755971 0.0280965577213005 -172.092904788065 0.0280965577213006 -172.092904788065 0.958154454444893 147.73304283541  
! Gamma         0                0                0                0                
! Port Impedance         50               0                50               0                
2.028                          0.958442467412471 147.489482331375 0.0280777755303373 -172.413654787663 0.0280777755303374 -172.413654787663 0.95809694694203 147.512677454368 
! Gamma         0                0                0                0                
! Port Impedance         50               0                50               0                
2.03                           0.958384897338065 147.268939253556 0.0280587338745837 -172.734880128093 0.0280587338745838 -172.734880128093 0.958039284648734 147.292234707342 
! Gamma         0                0                0                0                
! Port Impedance         50               0                50               0                
2.032                          0.958327171252151 147.04831830836  0.0280394314571145 -173.056586727381 0.0280394314571146 -173.056586727381 0.957981466108469 147.071714381722 
! Gamma         0                0                0                0                
! Port Impedance         50               0                50               0                
2.034                          0.958269287713474 146.827619280956 0.0280198669735963 -173.378780590478 0.0280198669735964 -173.378780590478 0.957923489852569 146.851116264231 
! Gamma         0                0                0                0                
! Port Impedance         50               0                50               0                
2.036                          0.958211245268478 146.606841955825 0.0280000391122968 -173.701467810846 0.0280000391122969 -173.701467810847 0.957865354400066 146.630440140915 
! Gamma         0                0                0                0                
! Port Impedance         50               0                50               0                
2.038                          0.958153042451123 146.385986116742 0.0279799465540958 -174.02465457209 0.0279799465540959 -174.02465457209 0.957807058257492 146.409685797121 
! Gamma         0                0                0                0                
! Port Impedance         50               0                50               0                
2.04                           0.958094677782691 146.165051546761 0.0279595879724998 -174.348347149608 0.0279595879724999 -174.348347149608 0.957748599918699 146.188853017487 
! Gamma         0                0                0                0                
! Port Impedance         50               0                50               0                
2.042                          0.958036149771594 145.944038028198 0.0279389620336596 -174.672551912292 0.0279389620336597 -174.672551912292 0.957689977864661 145.967941585925 
! Gamma         0                0                0                0                
! Port Impedance         50               0                50               0                
2.044                          0.957977456913178 145.722945342619 0.0279180673963906 -174.997275324257 0.0279180673963907 -174.997275324258 0.957631190563277 145.746951285604 
! Gamma         0                0                0                0                
! Port Impedance         50               0                50               0                
2.046                          0.957918597689515 145.501773270818 0.027896902712197 -175.322523946612 0.0278969027121972 -175.322523946612 0.957572236469172 145.525881898932 
! Gamma         0                0                0                0                
! Port Impedance         50               0                50               0                
2.048                          0.957859570569203 145.280521592805 0.0278754666252995 -175.648304439265 0.0278754666252997 -175.648304439266 0.957513114023489 145.304733207545 
! Gamma         0                0                0                0                
! Port Impedance         50               0                50               0                
2.05                           0.957800374007155 145.059190087785 0.027853757772666 -175.974623562773 0.027853757772666 -175.974623562774 0.957453821653679 145.083504992281 
! Gamma         0                0                0                0                
! Port Impedance         50               0                50               0                
2.052                          0.95774100644438 144.837778534144 0.0278317747840464 -176.301488180229 0.0278317747840465 -176.301488180229 0.957394357773294 144.862197033174 
! Gamma         0                0                0                0                
! Port Impedance         50               0                50               0                
2.054                          0.957681466307772 144.616286709429 0.0278095162820121 -176.628905259188 0.0278095162820122 -176.628905259189 0.957334720781759 144.640809109427 
! Gamma         0                0                0                0                
! Port Impedance         50               0                50               0                
2.056                          0.95762175200988 144.39471439033  0.0277869808819982 -176.956881873646 0.0277869808819984 -176.956881873646 0.957274909064159 144.419340999398 
! Gamma         0                0                0                0                
! Port Impedance         50               0                50               0                
2.058                          0.957561861948685 144.173061352666 0.0277641671923512 -177.285425206048 0.0277641671923513 -177.285425206049 0.957214920991006 144.197792480583 
! Gamma         0                0                0                0                
! Port Impedance         50               0                50               0                
2.06                           0.957501794507366 143.95132737136  0.0277410738143802 -177.614542549353 0.0277410738143804 -177.614542549353 0.957154754918013 143.976163329595 
! Gamma         0                0                0                0                
! Port Impedance         50               0                50               0                
2.062                          0.957441548054064 143.729512220424 0.0277176993424137 -177.944241309137 0.0277176993424139 -177.944241309137 0.957094409185851 143.754453322148 
! Gamma         0                0                0                0                
! Port Impedance         50               0                50               0                
2.064                          0.957381120941641 143.507615672939 0.0276940423638604 -178.274529005748 0.0276940423638605 -178.274529005748 0.957033882119914 143.532662233033 
! Gamma         0                0                0                0                
! Port Impedance         50               0                50               0                
2.066                          0.957320511507432 143.285637501036 0.0276701014592753 -178.605413276505 0.0276701014592754 -178.605413276505 0.956973172030075 143.310789836106 
! Gamma         0                0                0                0                
! Port Impedance         50               0                50               0                
2.068                          0.957259718072996 143.063577475874 0.0276458752024317 -178.936901877952 0.0276458752024318 -178.936901877952 0.956912277210427 143.08883590426  
! Gamma         0                0                0                0                
! Port Impedance         50               0                50               0                
2.07                           0.957198738943857 142.841435367624 0.0276213621603972 -179.269002688155 0.0276213621603973 -179.269002688155 0.956851195939035 142.866800209412 
! Gamma         0                0                0                0                
! Port Impedance         50               0                50               0                
2.072                          0.957137572409243 142.619210945442 0.0275965608936169 -179.601723709059 0.0275965608936171 -179.601723709059 0.956789926477674 142.644682522479 
! Gamma         0                0                0                0                
! Port Impedance         50               0                50               0                
2.074                          0.957076216741823 142.396903977453 0.0275714699560019 -179.935073068891 0.0275714699560021 -179.935073068892 0.956728467071559 142.422482613355 
! Gamma         0                0                0                0                
! Port Impedance         50               0                50               0                
2.076                          0.957014670197428 142.17451423073  0.0275460878950234 179.730940975376 0.0275460878950236 179.730940975376 0.956666815949076 142.200200250896 
! Gamma         0                0                0                0                
! Port Impedance         50               0                50               0                
2.078                          0.956952931014777 141.952041471269 0.0275204132518142 179.396310035509 0.0275204132518143 179.396310035509 0.956604971321505 141.977835202893 
! Gamma         0                0                0                0                
! Port Impedance         50               0                50               0                
2.08                           0.956890997415194 141.729485463969 0.027494444561276 179.061025589438 0.0274944445612762 179.061025589437 0.956542931382738 141.75538723605  
! Gamma         0                0                0                0                
! Port Impedance         50               0                50               0                
2.082                          0.956828867602315 141.506845972608 0.0274681803521946 178.725078978622 0.0274681803521947 178.725078978622 0.956480694308988 141.532856115969 
! Gamma         0                0                0                0                
! Port Impedance         50               0                50               0                
2.084                          0.956766539761797 141.284122759822 0.0274416191473611 178.388461405358 0.0274416191473612 178.388461405358 0.956418258258495 141.310241607116 
! Gamma         0                0                0                0                
! Port Impedance         50               0                50               0                
2.086                          0.956704012061012 141.061315587082 0.0274147594637016 178.051163930023 0.0274147594637018 178.051163930023 0.956355621371226 141.087543472807 
! Gamma         0                0                0                0                
! Port Impedance         50               0                50               0                
2.088                          0.956641282648745 140.838424214668 0.0273875998124144 177.713177468254 0.0273875998124146 177.713177468254 0.95629278176857 140.864761475182 
! Gamma         0                0                0                0                
! Port Impedance         50               0                50               0                
2.09                           0.956578349654875 140.615448401646 0.0273601386991152 177.374492788064 0.0273601386991154 177.374492788064 0.956229737553021 140.641895375178 
! Gamma         0                0                0                0                
! Port Impedance         50               0                50               0                
2.092                          0.956515211190055 140.392387905844 0.0273323746239907 177.035100506889 0.0273323746239908 177.035100506888 0.956166486807861 140.418944932508 
! Gamma         0                0                0                0                
! Port Impedance         50               0                50               0                
2.094                          0.956451865345389 140.169242483829 0.0273043060819611 176.694991088568 0.0273043060819613 176.694991088568 0.956103027596835 140.195909905637 
! Gamma         0                0                0                0                
! Port Impedance         50               0                50               0                
2.096                          0.956388310192095 139.946011890877 0.0272759315628523 176.354154840252 0.0272759315628524 176.354154840252 0.956039357963813 139.972790051753 
! Gamma         0                0                0                0                
! Port Impedance         50               0                50               0                
2.098                          0.956324543781163 139.722695880949 0.0272472495515762 176.012581909241 0.0272472495515764 176.012581909241 0.955975475932456 139.749585126746 
! Gamma         0                0                0                0                
! Port Impedance         50               0                50               0                
2.1                            0.956260564143011 139.49929420667  0.0272182585283225 175.670262279743 0.0272182585283227 175.670262279743 0.955911379505867 139.526294885176 
! Gamma         0                0                0                0                
! Port Impedance         50               0                50               0                
2.102                          0.956196369287127 139.275806619294 0.0271889569687596 175.327185769563 0.0271889569687597 175.327185769562 0.955847066666234 139.302919080254 
! Gamma         0                0                0                0                
! Port Impedance         50               0                50               0                
2.104                          0.956131957201708 139.052232868682 0.0271593433442466 174.983342026709 0.0271593433442467 174.983342026708 0.955782535374473 139.07945746381  
! Gamma         0                0                0                0                
! Port Impedance         50               0                50               0                
2.106                          0.95606732585329 138.828572703274 0.0271294161220568 174.63872052592  0.027129416122057 174.63872052592  0.955717783569857 138.855909786266 
! Gamma         0                0                0                0                
! Port Impedance         50               0                50               0                
2.108                          0.956002473186369 138.604825870059 0.0270991737656121 174.293310565111 0.0270991737656122 174.293310565111 0.955652809169638 138.63227579661  
! Gamma         0                0                0                0                
! Port Impedance         50               0                50               0                
2.11                           0.955937397123017 138.380992114548 0.0270686147347295 173.947101261732 0.0270686147347296 173.947101261732 0.955587610068666 138.408555242365 
! Gamma         0                0                0                0                
! Port Impedance         50               0                50               0                
2.112                          0.955872095562488 138.157071180746 0.0270377374858808 173.600081549044 0.0270377374858809 173.600081549043 0.95552218413899 138.184747869564 
! Gamma         0                0                0                0                
! Port Impedance         50               0                50               0                
2.114                          0.955806566380814 137.933062811119 0.0270065404724645 173.252240172299 0.0270065404724646 173.252240172298 0.955456529229465 137.960853422718 
! Gamma         0                0                0                0                
! Port Impedance         50               0                50               0                
2.116                          0.955740807430399 137.708966746567 0.0269750221450913 172.903565684837 0.0269750221450914 172.903565684837 0.955390643165335 137.736871644785 
! Gamma         0                0                0                0                
! Port Impedance         50               0                50               0                
2.118                          0.955674816539594 137.484782726395 0.0269431809518842 172.554046444083 0.0269431809518843 172.554046444083 0.955324523747822 137.512802277143 
! Gamma         0                0                0                0                
! Port Impedance         50               0                50               0                
2.12                           0.955608591512276 137.260510488274 0.0269110153387927 172.203670607451 0.0269110153387928 172.203670607451 0.955258168753692 137.288645059556 
! Gamma         0                0                0                0                
! Port Impedance         50               0                50               0                
2.122                          0.955542130127404 137.03614976822  0.0268785237499222 171.852426128144 0.0268785237499223 171.852426128144 0.955191575934825 137.064399730147 
! Gamma         0                0                0                0                
! Port Impedance         50               0                50               0                
2.124                          0.955475430138578 136.811700300554 0.0268457046278791 171.500300750858 0.0268457046278793 171.500300750857 0.955124743017768 136.840066025359 
! Gamma         0                0                0                0                
! Port Impedance         50               0                50               0                
2.126                          0.955408489273581 136.587161817873 0.0268125564141332 171.14728200738  0.0268125564141333 171.147282007379 0.955057667703277 136.61564367993  
! Gamma         0                0                0                0                
! Port Impedance         50               0                50               0                
2.128                          0.955341305233914 136.362534051015 0.0267790775493956 170.793357212077 0.0267790775493957 170.793357212076 0.95499034766586 136.391132426855 
! Gamma         0                0                0                0                
! Port Impedance         50               0                50               0                
2.13                           0.955273875694323 136.137816729026 0.0267452664740155 170.438513457276 0.0267452664740156 170.438513457276 0.954922780553295 136.166531997354 
! Gamma         0                0                0                0                
! Port Impedance         50               0                50               0                
2.132                          0.955206198302308 135.913009579125 0.0267111216283953 170.082737608534 0.0267111216283954 170.082737608534 0.954854963986151 135.941842120838 
! Gamma         0                0                0                0                
! Port Impedance         50               0                50               0                
2.134                          0.955138270677633 135.688112326672 0.0266766414534243 169.726016299785 0.0266766414534244 169.726016299784 0.954786895557291 135.717062524875 
! Gamma         0                0                0                0                
! Port Impedance         50               0                50               0                
2.136                          0.955070090411816 135.463124695126 0.0266418243909328 169.368335928373 0.0266418243909329 169.368335928373 0.954718572831369 135.492192935152 
! Gamma         0                0                0                0                
! Port Impedance         50               0                50               0                
2.138                          0.955001655067613 135.238046406015 0.0266066688841669 169.009682649965 0.026606668884167 169.009682649965 0.95464999334431 135.267233075442 
! Gamma         0                0                0                0                
! Port Impedance         50               0                50               0                
2.14                           0.954932962178492 135.012877178897 0.0265711733782845 168.650042373333 0.0265711733782846 168.650042373332 0.954581154602786 135.042182667565 
! Gamma         0                0                0                0                
! Port Impedance         50               0                50               0                
2.142                          0.954864009248088 134.787616731319 0.0265353363208739 168.289400755007 0.026535336320874 168.289400755007 0.954512054083677 134.817041431353 
! Gamma         0                0                0                0                
! Port Impedance         50               0                50               0                
2.144                          0.954794793749655 134.562264778786 0.0264991561624959 167.927743193802 0.0264991561624961 167.927743193802 0.954442689233521 134.59180908461  
! Gamma         0                0                0                0                
! Port Impedance         50               0                50               0                
2.146                          0.954725313125503 134.336821034716 0.0264626313572496 167.565054825202 0.0264626313572498 167.565054825202 0.95437305746795 134.366485343076 
! Gamma         0                0                0                0                
! Port Impedance         50               0                50               0                
2.148                          0.954655564786419 134.111285210403 0.0264257603633637 167.201320515607 0.0264257603633638 167.201320515606 0.954303156171118 134.141069920383 
! Gamma         0                0                0                0                
! Port Impedance         50               0                50               0                
2.15                           0.954585546111084 133.885657014977 0.0263885416438136 166.836524856437 0.0263885416438137 166.836524856437 0.954232982695113 133.915562528023 
! Gamma         0                0                0                0                
! Port Impedance         50               0                50               0                
2.152                          0.954515254445468 133.659936155364 0.0263509736669664 166.470652158091 0.0263509736669665 166.470652158091 0.954162534359358 133.6899628753   
! Gamma         0                0                0                0                
! Port Impedance         50               0                50               0                
2.154                          0.954444687102218 133.434122336242 0.0263130549072534 166.103686443746 0.0263130549072535 166.103686443746 0.954091808449997 133.464270669291 
! Gamma         0                0                0                0                
! Port Impedance         50               0                50               0                
2.156                          0.95437384136003 133.208215259999 0.0262747838458722 165.735611443014 0.0262747838458723 165.735611443014 0.954020802219272 133.238485614808 
! Gamma         0                0                0                0                
! Port Impedance         50               0                50               0                
2.158                          0.954302714463006 132.982214626693 0.0262361589715197 165.366410585426 0.0262361589715198 165.366410585426 0.95394951288488 133.012607414349 
! Gamma         0                0                0                0                
! Port Impedance         50               0                50               0                
2.16                           0.954231303620005 132.756120134005 0.0261971787811566 164.996066993761 0.0261971787811567 164.996066993761 0.953877937629324 132.786635768058 
! Gamma         0                0                0                0                
! Port Impedance         50               0                50               0                
2.162                          0.954159606003964 132.529931477197 0.0261578417808048 164.624563477208 0.0261578417808049 164.624563477208 0.953806073599237 132.560570373684 