! Touchstone file exported from HFSS 2022.1.0
!        File:           C:/Users/Hamza Safder/Downloads/PSF-V2 with holder (4).aedt
!        Generated:      12:48:04 AM  Sep 30, 2023
!        Design:         HFSSDesign1
!        Project:        PSF-V2 with holder (4)
!        Setup:          Setup1
!        Solution:       Sweep
!
! Variables:
!        WS = 5mm
!        ax = 15mm
!        az = 3.18mm
!        azd = 3mm
!        bx = 13mm
!        bx2 = 12.5mm
!        bx3 = 3.16mm
!        cin = 27.8mm
!        gap = 0.7mm
!        mid = 3mm
!        shift = 21.24mm
!        strip_1L = 18.62mm
!        substrate_L = 80mm
!        substrate_W = 70mm
!        t = 3mm
!        w50 = 9.18mm
!        wt = 1mm
!        xs = 0.8mm
!        zzz = 8mm
!
# GHz S MA R 50.000000
! Terminal data exported
! Port[1] = ground_T1
! Port[2] = ground_T2
2                              0.960520766798951 150.762622602402 0.0313952116847083 -165.0270635171  0.0313952116847082 -165.0270635171  0.960175249540739 150.783553350442 
! Gamma         0                0                0                0                
! Port Impedance         50               0                50               0                
2.002                          0.960472839978412 150.544116810815 0.0313937294298129 -165.319424524778 0.0313937294298128 -165.319424524778 0.96012725084541 150.565139298905 
! Gamma         0                0                0                0                
! Port Impedance         50               0                50               0                
2.004                          0.960424838107543 150.325542897214 0.0313920925131725 -165.611967823608 0.0313920925131724 -165.611967823608 0.960079177294737 150.346657355813 
! Gamma         0                0                0                0                
! Port Impedance         50               0                50               0                
2.006                          0.960376760557698 150.106900717581 0.0313903004022246 -165.904695434824 0.0313903004022245 -165.904695434824 0.960031028234004 150.128107378205 
! Gamma         0                0                0                0                
! Port Impedance         50               0                50               0                
2.008                          0.960328606699013 149.888190128088 0.0313883525620823 -166.197609401322 0.0313883525620822 -166.197609401322 0.959982803007269 149.909489223313 
! Gamma         0                0                0                0                
! Port Impedance         50               0                50               0                
2.01                           0.960280375900407 149.669410985098 0.0313862484555233 -166.49071178796 0.0313862484555232 -166.49071178796 0.959934500957351 149.690802748563 
! Gamma         0                0                0                0                
! Port Impedance         50               0                50               0                
2.012                          0.960232067529572 149.450563145157 0.0313839875429791 -166.784004681859 0.031383987542979 -166.784004681859 0.959886121425837 149.472047811568 
! Gamma         0                0                0                0                
! Port Impedance         50               0                50               0                
2.014                          0.960183680952973 149.231646464992 0.0313815692825244 -167.077490192708 0.0313815692825243 -167.077490192708 0.959837663753068 149.25322427013  
! Gamma         0                0                0                0                
! Port Impedance         50               0                50               0                
2.016                          0.960135215535842 149.012660801511 0.0313789931298671 -167.371170453081 0.031378993129867 -167.371170453081 0.959789127278144 149.03433198223  
! Gamma         0                0                0                0                
! Port Impedance         50               0                50               0                
2.018                          0.960086670642175 148.793606011796 0.0313762585383381 -167.665047618749 0.0313762585383381 -167.665047618749 0.959740511338915 148.815370806031 
! Gamma         0                0                0                0                
! Port Impedance         50               0                50               0                
2.02                           0.960038045634726 148.574481953102 0.0313733649588818 -167.959123869003 0.0313733649588817 -167.959123869003 0.959691815271976 148.596340599869 
! Gamma         0                0                0                0                
! Port Impedance         50               0                50               0                
2.022                          0.959989339874999 148.355288482852 0.0313703118400464 -168.25340140698 0.0313703118400463 -168.25340140698 0.959643038412666 148.377241222257 
! Gamma         0                0                0                0                
! Port Impedance         50               0                50               0                
2.024                          0.959940552723249 148.136025458633 0.031367098627975 -168.547882459998 0.0313670986279749 -168.547882459998 0.959594180095058 148.158072531872 
! Gamma         0                0                0                0                
! Port Impedance         50               0                50               0                
2.026                          0.959891683538468 147.916692738196 0.0313637247663964 -168.842569279889 0.0313637247663964 -168.842569279889 0.959545239651957 147.938834387559 
! Gamma         0                0                0                0                
! Port Impedance         50               0                50               0                
2.028                          0.959842731678384 147.697290179448 0.0313601896966173 -169.137464143342 0.0313601896966173 -169.137464143342 0.959496216414894 147.719526648325 
! Gamma         0                0                0                0                
! Port Impedance         50               0                50               0                
2.03                           0.959793696499454 147.477817640449 0.0313564928575133 -169.432569352252 0.0313564928575133 -169.432569352253 0.959447109714118 147.500149173334 
! Gamma         0                0                0                0                
! Port Impedance         50               0                50               0                
2.032                          0.959744577356855 147.258274979411 0.0313526336855216 -169.727887234076 0.0313526336855215 -169.727887234076 0.95939791887859 147.280701821902 
! Gamma         0                0                0                0                
! Port Impedance         50               0                50               0                
2.034                          0.959695373604478 147.038662054689 0.0313486116146332 -170.023420142183 0.0313486116146331 -170.023420142184 0.959348643235976 147.061184453497 
! Gamma         0                0                0                0                
! Port Impedance         50               0                50               0                
2.036                          0.959646084594919 146.818978724783 0.0313444260763861 -170.31917045623 0.0313444260763861 -170.31917045623 0.959299282112643 146.841596927733 
! Gamma         0                0                0                0                
! Port Impedance         50               0                50               0                
2.038                          0.959596709679473 146.599224848328 0.0313400764998588 -170.615140582524 0.0313400764998587 -170.615140582524 0.959249834833645 146.621939104364 
! Gamma         0                0                0                0                
! Port Impedance         50               0                50               0                
2.04                           0.959547248208123 146.379400284094 0.0313355623116632 -170.9113329544  0.0313355623116631 -170.9113329544  0.959200300722721 146.402210843281 
! Gamma         0                0                0                0                
! Port Impedance         50               0                50               0                
2.042                          0.959497699529534 146.159504890977 0.0313308829359397 -171.207750032608 0.0313308829359397 -171.207750032609 0.959150679102283 146.182412004508 
! Gamma         0                0                0                0                
! Port Impedance         50               0                50               0                
2.044                          0.959448062991041 145.939538528001 0.0313260377943515 -171.504394305697 0.0313260377943514 -171.504394305697 0.959100969293409 145.962542448199 
! Gamma         0                0                0                0                
! Port Impedance         50               0                50               0                
2.046                          0.95939833793864 145.719501054307 0.0313210263060792 -171.801268290409 0.0313210263060791 -171.801268290409 0.959051170615832 145.742602034629 
! Gamma         0                0                0                0                
! Port Impedance         50               0                50               0                
2.048                          0.95934852371698 145.49939232915  0.0313158478878171 -172.098374532085 0.031315847887817 -172.098374532085 0.959001282387934 145.522590624193 
! Gamma         0                0                0                0                
! Port Impedance         50               0                50               0                
2.05                           0.959298619669349 145.279212211898 0.0313105019537689 -172.395715605069 0.0313105019537689 -172.395715605069 0.958951303926731 145.302508077399 
! Gamma         0                0                0                0                
! Port Impedance         50               0                50               0                
2.052                          0.959248625137667 145.058960562021 0.0313049879156444 -172.693294113123 0.0313049879156443 -172.693294113123 0.958901234547865 145.082354254866 
! Gamma         0                0                0                0                
! Port Impedance         50               0                50               0                
2.054                          0.95919853946247 144.83863723909  0.0312993051826564 -172.991112689849 0.0312993051826564 -172.99111268985 0.958851073565594 144.862129017316 
! Gamma         0                0                0                0                
! Port Impedance         50               0                50               0                
2.056                          0.959148361982903 144.618242102773 0.0312934531615188 -173.289173999118 0.0312934531615188 -173.289173999119 0.958800820292779 144.641832225568 
! Gamma         0                0                0                0                
! Port Impedance         50               0                50               0                
2.058                          0.959098092036704 144.397775012823 0.0312874312564447 -173.587480735502 0.0312874312564446 -173.587480735502 0.958750474040873 144.421463740536 
! Gamma         0                0                0                0                
! Port Impedance         50               0                50               0                
2.06                           0.959047728960193 144.17723582908  0.0312812388691451 -173.886035624718 0.0312812388691451 -173.886035624718 0.958700034119909 144.201023423223 
! Gamma         0                0                0                0                
! Port Impedance         50               0                50               0                
2.062                          0.958997272088256 143.956624411463 0.0312748753988291 -174.184841424076 0.0312748753988291 -174.184841424076 0.958649499838485 143.980511134713 
! Gamma         0                0                0                0                
! Port Impedance         50               0                50               0                
2.064                          0.958946720754338 143.73594061996  0.0312683402422034 -174.48390092294 0.0312683402422034 -174.48390092294 0.958598870503752 143.759926736168 
! Gamma         0                0                0                0                
! Port Impedance         50               0                50               0                
2.066                          0.958896074290419 143.51518431463  0.0312616327934735 -174.783216943187 0.0312616327934735 -174.783216943187 0.958548145421402 143.539270088819 
! Gamma         0                0                0                0                
! Port Impedance         50               0                50               0                
2.068                          0.958845332027007 143.294355355591 0.0312547524443454 -175.082792339681 0.0312547524443454 -175.082792339682 0.958497323895651 143.318541053965 
! Gamma         0                0                0                0                
! Port Impedance         50               0                50               0                
2.07                           0.95879449329312 143.073453603016 0.0312476985840278 -175.382630000756 0.0312476985840278 -175.382630000757 0.958446405229225 143.097739492962 
! Gamma         0                0                0                0                
! Port Impedance         50               0                50               0                
2.072                          0.958743557416269 142.852478917128 0.0312404705992351 -175.682732848699 0.031240470599235 -175.6827328487  0.958395388723345 142.87686526722  
! Gamma         0                0                0                0                
! Port Impedance         50               0                50               0                
2.074                          0.958692523722445 142.631431158192 0.0312330678741916 -175.983103840249 0.0312330678741916 -175.983103840249 0.958344273677709 142.655918238195 
! Gamma         0                0                0                0                
! Port Impedance         50               0                50               0                
2.076                          0.958641391536095 142.410310186507 0.031225489790636 -176.2837459671  0.031225489790636 -176.2837459671  0.95829305939048 142.434898267384 
! Gamma         0                0                0                0                
! Port Impedance         50               0                50               0                
2.078                          0.958590160180114 142.189115862406 0.031217735727827 -176.584662256414 0.031217735727827 -176.584662256414 0.958241745158263 142.213805216318 
! Gamma         0                0                0                0                
! Port Impedance         50               0                50               0                
2.08                           0.958538828975818 141.967848046241 0.0312098050625498 -176.885855771343 0.0312098050625498 -176.885855771344 0.958190330276091 141.992638946554 
! Gamma         0                0                0                0                
! Port Impedance         50               0                50               0                
2.082                          0.958487397242932 141.74650659838  0.0312016971691233 -177.18732961156 0.0312016971691232 -177.18732961156 0.958138814037409 141.77139931967  
! Gamma         0                0                0                0                
! Port Impedance         50               0                50               0                
2.084                          0.958435864299566 141.525091379203 0.0311934114194085 -177.489086913794 0.0311934114194085 -177.489086913795 0.958087195734046 141.550086197257 
! Gamma         0                0                0                0                
! Port Impedance         50               0                50               0                
2.086                          0.958384229462197 141.30360224909  0.0311849471828179 -177.791130852384 0.0311849471828179 -177.791130852384 0.958035474656206 141.328699440913 
! Gamma         0                0                0                0                
! Port Impedance         50               0                50               0                
2.088                          0.958332492045649 141.082039068414 0.0311763038263256 -178.093464639831 0.0311763038263256 -178.093464639831 0.957983650092442 141.107238912233 
! Gamma         0                0                0                0                
! Port Impedance         50               0                50               0                
2.09                           0.95828065136307 140.860401697539 0.0311674807144787 -178.396091527369 0.0311674807144787 -178.396091527369 0.957931721329635 140.885704472805 
! Gamma         0                0                0                0                
! Port Impedance         50               0                50               0                
2.092                          0.958228706725909 140.638689996804 0.0311584772094098 -178.699014805538 0.0311584772094098 -178.699014805538 0.957879687652975 140.664095984201 
! Gamma         0                0                0                0                
! Port Impedance         50               0                50               0                
2.094                          0.958176657443899 140.416903826524 0.0311492926708504 -179.002237804775 0.0311492926708504 -179.002237804775 0.957827548345937 140.442413307969 
! Gamma         0                0                0                0                
! Port Impedance         50               0                50               0                
2.096                          0.958124502825027 140.195043046976 0.0311399264561456 -179.305763896005 0.0311399264561456 -179.305763896005 0.957775302690259 140.220656305625 
! Gamma         0                0                0                0                
! Port Impedance         50               0                50               0                
2.098                          0.958072242175513 139.973107518392 0.0311303779202702 -179.609596491253 0.0311303779202702 -179.609596491253 0.957722949965917 139.998824838646 
! Gamma         0                0                0                0                
! Port Impedance         50               0                50               0                
2.1                            0.958019874799786 139.751097100955 0.0311206464158456 -179.913739044256 0.0311206464158456 -179.913739044256 0.957670489451101 139.77691876846  
! Gamma         0                0                0                0                
! Port Impedance         50               0                50               0                
2.102                          0.957967400000456 139.529011654783 0.0311107312931584 179.781804948905 0.0311107312931584 179.781804948904 0.957617920422193 139.554937956441 
! Gamma         0                0                0                0                
! Port Impedance         50               0                50               0                
2.104                          0.957914817078289 139.306851039929 0.0311006319001802 179.477031949168 0.0311006319001802 179.477031949168 0.957565242153735 139.332882263897 
! Gamma         0                0                0                0                
! Port Impedance         50               0                50               0                
2.106                          0.957862125332182 139.084615116365 0.0310903475825884 179.171938373843 0.0310903475825884 179.171938373843 0.95751245391841 139.110751552062 
! Gamma         0                0                0                0                
! Port Impedance         50               0                50               0                
2.108                          0.957809324059132 138.86230374398  0.0310798776837893 178.866520595947 0.0310798776837893 178.866520595946 0.957459554987006 138.888545682091 
! Gamma         0                0                0                0                
! Port Impedance         50               0                50               0                
2.11                           0.957756412554207 138.639916782562 0.0310692215449417 178.560774943534 0.0310692215449417 178.560774943533 0.957406544628395 138.666264515044 
! Gamma         0                0                0                0                
! Port Impedance         50               0                50               0                
2.112                          0.95770339011052 138.4174540918   0.0310583785049823 178.254697699011 0.0310583785049823 178.25469769901  0.9573534221095  138.443907911883 
! Gamma         0                0                0                0                
! Port Impedance         50               0                50               0                
2.114                          0.957650256019195 138.194915531264 0.0310473479006536 177.948285098441 0.0310473479006536 177.948285098441 0.957300186695267 138.22147573346  
! Gamma         0                0                0                0                
! Port Impedance         50               0                50               0                
2.116                          0.95759700956934 137.972300960402 0.0310361290665316 177.641533330838 0.0310361290665315 177.641533330838 0.957246837648632 137.998967840509 
! Gamma         0                0                0                0                
! Port Impedance         50               0                50               0                
2.118                          0.957543650048009 137.74961023853  0.0310247213350569 177.334438537442 0.0310247213350569 177.334438537442 0.957193374230491 137.776384093633 
! Gamma         0                0                0                0                
! Port Impedance         50               0                50               0                
2.12                           0.957490176740175 137.526843224818 0.0310131240365669 177.026996810989 0.0310131240365669 177.026996810989 0.957139795699668 137.553724353298 
! Gamma         0                0                0                0                
! Port Impedance         50               0                50               0                
2.122                          0.957436588928692 137.303999778283 0.0310013364993292 176.719204194964 0.0310013364993292 176.719204194963 0.957086101312879 137.330988479819 
! Gamma         0                0                0                0                
! Port Impedance         50               0                50               0                
2.124                          0.957382885894262 137.081079757779 0.0309893580495778 176.411056682841 0.0309893580495778 176.411056682841 0.957032290324701 137.108176333356 
! Gamma         0                0                0                0                
! Port Impedance         50               0                50               0                
2.126                          0.957329066915399 136.858083021985 0.0309771880115506 176.102550217314 0.0309771880115506 176.102550217314 0.956978361987532 136.885287773895 
! Gamma         0                0                0                0                
! Port Impedance         50               0                50               0                
2.128                          0.957275131268392 136.635009429394 0.0309648257075294 175.793680689505 0.0309648257075294 175.793680689505 0.95692431555156 136.662322661243 
! Gamma         0                0                0                0                
! Port Impedance         50               0                50               0                
2.13                           0.957221078227268 136.411858838304 0.0309522704578811 175.484443938171 0.0309522704578811 175.48444393817  0.956870150264721 136.439280855019 
! Gamma         0                0                0                0                
! Port Impedance         50               0                50               0                
2.132                          0.957166907063751 136.188631106805 0.030939521581102 175.174835748881 0.0309395215811019 175.17483574888  0.956815865372664 136.216162214636 
! Gamma         0                0                0                0                
! Port Impedance         50               0                50               0                
2.134                          0.957112617047226 135.96532609277  0.0309265783938633 174.864851853195 0.0309265783938633 174.864851853194 0.956761460118709 135.992966599294 
! Gamma         0                0                0                0                
! Port Impedance         50               0                50               0                
2.136                          0.957058207444692 135.741943653841 0.0309134402110601 174.554487927816 0.0309134402110601 174.554487927815 0.956706933743807 135.769693867971 
! Gamma         0                0                0                0                
! Port Impedance         50               0                50               0                
2.138                          0.957003677520728 135.518483647417 0.0309001063458611 174.243739593732 0.0309001063458611 174.243739593731 0.956652285486501 135.546343879405 
! Gamma         0                0                0                0                
! Port Impedance         50               0                50               0                
2.14                           0.956949026537444 135.294945930645 0.0308865761097621 173.932602415342 0.0308865761097622 173.932602415342 0.956597514582879 135.322916492087 
! Gamma         0                0                0                0                
! Port Impedance         50               0                50               0                
2.142                          0.956894253754437 135.071330360406 0.0308728488126415 173.621071899568 0.0308728488126415 173.621071899567 0.956542620266534 135.099411564248 
! Gamma         0                0                0                0                
! Port Impedance         50               0                50               0                
2.144                          0.956839358428751 134.847636793302 0.0308589237628178 173.309143494944 0.0308589237628178 173.309143494943 0.956487601768517 134.875828953845 
! Gamma         0                0                0                0                
! Port Impedance         50               0                50               0                
2.146                          0.956784339814823 134.623865085643 0.0308448002671107 172.996812590698 0.0308448002671107 172.996812590698 0.95643245831729 134.652168518549 
! Gamma         0                0                0                0                
! Port Impedance         50               0                50               0                
2.148                          0.95672919716444 134.400015093439 0.0308304776309045 172.684074515815 0.0308304776309045 172.684074515814 0.956377189138681 134.428430115733 
! Gamma         0                0                0                0                
! Port Impedance         50               0                50               0                
2.15                           0.956673929726691 134.176086672378 0.0308159551582139 172.370924538074 0.0308159551582139 172.370924538073 0.956321793455833 134.204613602458 
! Gamma         0                0                0                0                
! Port Impedance         50               0                50               0                
2.152                          0.956618536747911 133.952079677821 0.0308012321517533 172.057357863081 0.0308012321517533 172.05735786308  0.956266270489157 133.980718835463 
! Gamma         0                0                0                0                
! Port Impedance         50               0                50               0                
2.154                          0.956563017471635 133.727993964785 0.0307863079130089 171.743369633276 0.0307863079130089 171.743369633275 0.956210619456277 133.756745671144 
! Gamma         0                0                0                0                
! Port Impedance         50               0                50               0                
2.156                          0.956507371138545 133.503829387928 0.0307711817423142 171.428954926924 0.0307711817423142 171.428954926923 0.956154839571982 133.532693965549 
! Gamma         0                0                0                0                
! Port Impedance         50               0                50               0                
2.158                          0.956451596986411 133.279585801537 0.0307558529389275 171.114108757087 0.0307558529389275 171.114108757087 0.956098930048166 133.308563574357 
! Gamma         0                0                0                0                
! Port Impedance         50               0                50               0                
2.16                           0.95639569425004 133.055263059512 0.0307403208011147 170.79882607058  0.0307403208011147 170.79882607058  0.956042890093779 133.084354352868 
! Gamma         0                0                0                0                
! Port Impedance         50               0                50               0                
2.162                          0.956339662161217 132.830861015353 0.0307245846262335 170.483101746902 0.0307245846262335 170.483101746902 0.955986718914768 132.860066155987 