! Touchstone file exported from HFSS 2022.1.0
!        File:           C:/Users/Hamza Safder/Downloads/PSF-V2 with holder (2).aedt
!        Generated:      10:46:29 PM  Sep 21, 2023
!        Design:         HFSSDesign1
!        Project:        PSF-V2 with holder (2)
!        Setup:          Setup1
!        Solution:       Sweep
!
! Variables:
!        WS = 5mm
!        ax = 15mm
!        az = 3.18mm
!        azd = 3mm
!        bx = 13mm
!        bx2 = 12.5mm
!        bx3 = 3.16mm
!        cin = 27.8mm
!        gap = 0.7mm
!        mid = 3mm
!        shift = 21.24mm
!        strip_1L = 18.62mm
!        substrate_L = 80mm
!        substrate_W = 70mm
!        t = 3mm
!        w50 = 9.18mm
!        wt = 1mm
!        xs = 0.8mm
!        zzz = 8mm
!
# GHz S MA R 50.000000
! Terminal data exported
! Port[1] = ground_T1
! Port[2] = ground_T2
2                              0.960623413224791 150.802860508352 0.0322289678882315 -164.019457271141 0.0322289678882314 -164.019457271141 0.960533395995957 150.854248265433 
! Gamma         0                0                0                0                
! Port Impedance         50               0                50               0                
2.002                          0.960576840129023 150.58459736591  0.0322290439643651 -164.305989911532 0.0322290439643649 -164.305989911532 0.960486641914481 150.636002603152 
! Gamma         0                0                0                0                
! Port Impedance         50               0                50               0                
2.004                          0.960530190810734 150.366267412447 0.0322290041990227 -164.592670525933 0.0322290041990225 -164.592670525933 0.960439810897481 150.417689446031 
! Gamma         0                0                0                0                
! Port Impedance         50               0                50               0                
2.006                          0.960483464721668 150.147870518761 0.0322288479277465 -164.879500600024 0.0322288479277462 -164.879500600024 0.960392902394466 150.19930866316  
! Gamma         0                0                0                0                
! Port Impedance         50               0                50               0                
2.008                          0.960436661313206 149.929406555982 0.0322285744846279 -165.166481634513 0.0322285744846276 -165.166481634513 0.96034591585463 149.980860123963 
! Gamma         0                0                0                0                
! Port Impedance         50               0                50               0                
2.01                           0.960389780036372 149.710875395566 0.0322281832023018 -165.453615145337 0.0322281832023015 -165.453615145337 0.960298850726848 149.762343698195 
! Gamma         0                0                0                0                
! Port Impedance         50               0                50               0                
2.012                          0.960342820341832 149.492276909294 0.0322276734119405 -165.740902663876 0.0322276734119401 -165.740902663876 0.960251706459687 149.543759255944 
! Gamma         0                0                0                0                
! Port Impedance         50               0                50               0                
2.014                          0.960295781679907 149.273610969273 0.0322270444432474 -166.028345737163 0.0322270444432469 -166.028345737162 0.960204482501409 149.325106667623 
! Gamma         0                0                0                0                
! Port Impedance         50               0                50               0                
2.016                          0.960248663500574 149.054877447933 0.0322262956244515 -166.3159459281  0.0322262956244511 -166.3159459281  0.960157178299974 149.106385803977 
! Gamma         0                0                0                0                
! Port Impedance         50               0                50               0                
2.018                          0.960201465253467 148.836076218024 0.0322254262823015 -166.603704815678 0.0322254262823011 -166.603704815678 0.96010979330305 148.887596536073 
! Gamma         0                0                0                0                
! Port Impedance         50               0                50               0                
2.02                           0.960154186387887 148.617207152616 0.0322244357420598 -166.891623995198 0.0322244357420593 -166.891623995198 0.960062326958009 148.668738735303 
! Gamma         0                0                0                0                
! Port Impedance         50               0                50               0                
2.022                          0.960106826352804 148.398270125097 0.0322233233274966 -167.179705078494 0.0322233233274961 -167.179705078494 0.960014778711941 148.449812273381 
! Gamma         0                0                0                0                
! Port Impedance         50               0                50               0                
2.024                          0.96005938459686 148.179265009169 0.0322220883608847 -167.467949694165 0.0322220883608842 -167.467949694164 0.95996714801165 148.23081702234  
! Gamma         0                0                0                0                
! Port Impedance         50               0                50               0                
2.026                          0.960011860568374 147.960191678848 0.0322207301629937 -167.756359487802 0.0322207301629931 -167.756359487802 0.959919434303662 148.011752854534 
! Gamma         0                0                0                0                
! Port Impedance         50               0                50               0                
2.028                          0.959964253715346 147.741050008463 0.0322192480530843 -168.04493612223 0.0322192480530837 -168.044936122229 0.95987163703423 147.792619642628 
! Gamma         0                0                0                0                
! Port Impedance         50               0                50               0                
2.03                           0.959916563485458 147.521839872649 0.0322176413489032 -168.333681277737 0.0322176413489026 -168.333681277736 0.959823755649334 147.573417259606 
! Gamma         0                0                0                0                
! Port Impedance         50               0                50               0                
2.032                          0.959868789326081 147.30256114635  0.0322159093666775 -168.622596652324 0.0322159093666768 -168.622596652324 0.959775789594686 147.354145578759 
! Gamma         0                0                0                0                
! Port Impedance         50               0                50               0                
2.034                          0.959820930684277 147.083213704816 0.0322140514211097 -168.911683961948 0.032214051421109 -168.911683961948 0.959727738315735 147.13480447369  
! Gamma         0                0                0                0                
! Port Impedance         50               0                50               0                
2.036                          0.959772987006798 146.863797423597 0.0322120668253725 -169.200944940769 0.0322120668253718 -169.200944940768 0.959679601257667 146.915393818309 
! Gamma         0                0                0                0                
! Port Impedance         50               0                50               0                
2.038                          0.959724957740096 146.644312178544 0.0322099548911039 -169.490381341404 0.0322099548911032 -169.490381341403 0.959631377865411 146.695913486829 
! Gamma         0                0                0                0                
! Port Impedance         50               0                50               0                
2.04                           0.959676842330319 146.424757845806 0.0322077149284023 -169.779994935184 0.0322077149284015 -169.779994935184 0.959583067583639 146.476363353765 
! Gamma         0                0                0                0                
! Port Impedance         50               0                50               0                
2.042                          0.959628640223318 146.205134301825 0.0322053462458216 -170.069787512416 0.0322053462458208 -170.069787512415 0.959534669856771 146.256743293934 
! Gamma         0                0                0                0                
! Port Impedance         50               0                50               0                
2.044                          0.959580350864645 145.985441423338 0.032202848150367 -170.359760882642 0.0322028481503661 -170.359760882641 0.959486184128973 146.037053182446 
! Gamma         0                0                0                0                
! Port Impedance         50               0                50               0                
2.046                          0.959531973699559 145.765679087369 0.0322002199474902 -170.649916874912 0.0322002199474894 -170.649916874911 0.959437609844165 145.817292894708 
! Gamma         0                0                0                0                
! Port Impedance         50               0                50               0                
2.048                          0.959483508173026 145.545847171231 0.0321974609410856 -170.940257338054 0.0321974609410847 -170.940257338053 0.959388946446018 145.597462306417 
! Gamma         0                0                0                0                
! Port Impedance         50               0                50               0                
2.05                           0.959434953729719 145.325945552518 0.0321945704334855 -171.23078414095 0.0321945704334846 -171.230784140949 0.959340193377959 145.377561293559 
! Gamma         0                0                0                0                
! Port Impedance         50               0                50               0                
2.052                          0.959386309814022 145.105974109107 0.032191547725457 -171.521499172819 0.0321915477254561 -171.521499172817 0.95929135008317 145.157589732404 
! Gamma         0                0                0                0                
! Port Impedance         50               0                50               0                
2.054                          0.959337575870029 144.885932719153 0.0321883921161977 -171.812404343495 0.0321883921161968 -171.812404343494 0.959242416004588 144.937547499506 
! Gamma         0                0                0                0                
! Port Impedance         50               0                50               0                
2.056                          0.959288751341545 144.665821261083 0.0321851029033324 -172.103501583724 0.0321851029033314 -172.103501583723 0.959193390584912 144.717434471697 
! Gamma         0                0                0                0                
! Port Impedance         50               0                50               0                
2.058                          0.959239835672088 144.445639613598 0.0321816793829096 -172.394792845451 0.0321816793829086 -172.394792845449 0.959144273266595 144.497250526086 
! Gamma         0                0                0                0                
! Port Impedance         50               0                50               0                
2.06                           0.959190828304891 144.225387655667 0.0321781208493987 -172.68628010212 0.0321781208493977 -172.686280102118 0.959095063491853 144.276995540053 
! Gamma         0                0                0                0                
! Port Impedance         50               0                50               0                
2.062                          0.959141728682895 144.005065266522 0.032174426595687 -172.977965348975 0.032174426595686 -172.977965348974 0.959045760702658 144.05666939125  
! Gamma         0                0                0                0                
! Port Impedance         50               0                50               0                
2.064                          0.959092536248756 143.784672325658 0.0321705959130769 -173.26985060337 0.0321705959130759 -173.269850603369 0.958996364340742 143.836271957592 
! Gamma         0                0                0                0                
! Port Impedance         50               0                50               0                
2.066                          0.959043250444842 143.564208712827 0.0321666280912839 -173.561937905076 0.0321666280912828 -173.561937905074 0.958946873847596 143.615803117258 
! Gamma         0                0                0                0                
! Port Impedance         50               0                50               0                
2.068                          0.958993870713231 143.343674308035 0.0321625224184339 -173.854229316598 0.0321625224184329 -173.854229316596 0.958897288664468 143.395262748684 
! Gamma         0                0                0                0                
! Port Impedance         50               0                50               0                
2.07                           0.958944396495712 143.123068991538 0.0321582781810622 -174.146726923497 0.0321582781810612 -174.146726923496 0.958847608232366 143.174650730563 
! Gamma         0                0                0                0                
! Port Impedance         50               0                50               0                
2.072                          0.958894827233784 142.902392643838 0.0321538946641113 -174.439432834719 0.0321538946641102 -174.439432834717 0.958797831992049 142.953966941837 
! Gamma         0                0                0                0                
! Port Impedance         50               0                50               0                
2.074                          0.958845162368651 142.681645145681 0.0321493711509299 -174.732349182918 0.0321493711509288 -174.732349182916 0.958747959384033 142.733211261697 
! Gamma         0                0                0                0                
! Port Impedance         50               0                50               0                
2.076                          0.958795401341226 142.460826378051 0.0321447069232719 -175.025478124798 0.0321447069232708 -175.025478124797 0.958697989848588 142.512383569574 
! Gamma         0                0                0                0                
! Port Impedance         50               0                50               0                
2.078                          0.958745543592122 142.239936222166 0.0321399012612961 -175.318821841455 0.032139901261295 -175.318821841454 0.958647922825731 142.29148374514  
! Gamma         0                0                0                0                
! Port Impedance         50               0                50               0                
2.08                           0.958695588561654 142.018974559474 0.0321349534435657 -175.612382538718 0.0321349534435646 -175.612382538717 0.958597757755229 142.070511668302 
! Gamma         0                0                0                0                
! Port Impedance         50               0                50               0                
2.082                          0.958645535689836 141.797941271648 0.0321298627470484 -175.906162447506 0.0321298627470473 -175.906162447504 0.958547494076593 141.849467219196 
! Gamma         0                0                0                0                
! Port Impedance         50               0                50               0                
2.084                          0.958595384416375 141.576836240584 0.0321246284471173 -176.200163824181 0.0321246284471161 -176.200163824179 0.958497131229078 141.628350278185 
! Gamma         0                0                0                0                
! Port Impedance         50               0                50               0                
2.086                          0.958545134180673 141.355659348394 0.0321192498175512 -176.494388950915 0.03211924981755 -176.494388950913 0.958446668651676 141.407160725852 
! Gamma         0                0                0                0                
! Port Impedance         50               0                50               0                
2.088                          0.958494784421816 141.134410477403 0.0321137261305364 -176.788840136056 0.0321137261305351 -176.788840136054 0.958396105783113 141.185898442997 
! Gamma         0                0                0                0                
! Port Impedance         50               0                50               0                
2.09                           0.958444334578575 140.913089510141 0.0321080566566683 -177.083519714503 0.0321080566566671 -177.083519714501 0.958345442061849 140.964563310633 
! Gamma         0                0                0                0                
! Port Impedance         50               0                50               0                
2.092                          0.958393784089402 140.691696329343 0.0321022406649537 -177.378430048086 0.0321022406649525 -177.378430048084 0.958294676926066 140.743155209978 
! Gamma         0                0                0                0                
! Port Impedance         50               0                50               0                
2.094                          0.95834313239242 140.470230817942 0.0320962774228132 -177.673573525952 0.032096277422812 -177.67357352595 0.958243809813673 140.521674022455 
! Gamma         0                0                0                0                
! Port Impedance         50               0                50               0                
2.096                          0.958292378925423 140.24869285906  0.0320901661960846 -177.968952564959 0.0320901661960834 -177.968952564957 0.95819284016229 140.300119629682 
! Gamma         0                0                0                0                
! Port Impedance         50               0                50               0                
2.098                          0.958241523125868 140.027082336011 0.0320839062490263 -178.264569610072 0.032083906249025 -178.26456961007 0.95814176740925 140.078491913468 
! Gamma         0                0                0                0                
! Port Impedance         50               0                50               0                
2.1                            0.958190564430869 139.805399132288 0.0320774968443217 -178.560427134768 0.0320774968443204 -178.560427134766 0.958090590991591 139.85679075581  
! Gamma         0                0                0                0                
! Port Impedance         50               0                50               0                
2.102                          0.958139502277192 139.583643131562 0.0320709372430837 -178.856527641449 0.0320709372430824 -178.856527641447 0.958039310346049 139.635016038887 
! Gamma         0                0                0                0                
! Port Impedance         50               0                50               0                
2.104                          0.958088336101248 139.361814217674 0.0320642267048602 -179.15287366186 0.0320642267048589 -179.152873661859 0.957987924909051 139.41316764505  
! Gamma         0                0                0                0                
! Port Impedance         50               0                50               0                
2.106                          0.958037065339083 139.139912274632 0.0320573644876399 -179.449467757511 0.0320573644876386 -179.44946775751 0.957936434116709 139.191245456823 
! Gamma         0                0                0                0                
! Port Impedance         50               0                50               0                
2.108                          0.957985689426374 138.917937186602 0.0320503498478585 -179.74631252011 0.0320503498478572 -179.746312520108 0.957884837404813 138.969249356894 
! Gamma         0                0                0                0                
! Port Impedance         50               0                50               0                
2.11                           0.957934207798418 138.695888837905 0.0320431820404062 179.956589428    0.0320431820404049 179.956589428001 0.957833134208818 138.747179228107 
! Gamma         0                0                0                0                
! Port Impedance         50               0                50               0                
2.112                          0.957882619890127 138.473767113009 0.032035860318635 179.659235433393 0.0320358603186338 179.659235433395 0.957781323963843 138.52503495346  
! Gamma         0                0                0                0                
! Port Impedance         50               0                50               0                
2.114                          0.957830925136016 138.251571896526 0.0320283839343678 179.361622811112 0.0320283839343665 179.361622811114 0.957729406104656 138.302816416097 
! Gamma         0                0                0                0                
! Port Impedance         50               0                50               0                
2.116                          0.957779122970196 138.0293030732   0.0320207521379068 179.063748844205 0.0320207521379055 179.063748844207 0.957677380065668 138.0805234993   
! Gamma         0                0                0                0                
! Port Impedance         50               0                50               0                
2.118                          0.95772721282636 137.806960527906 0.0320129641780438 178.765610783262 0.0320129641780424 178.765610783263 0.957625245280922 137.858156086485 
! Gamma         0                0                0                0                
! Port Impedance         50               0                50               0                
2.12                           0.957675194137778 137.584544145641 0.0320050193020708 178.467205845934 0.0320050193020694 178.467205845936 0.957573001184081 137.635714061197 
! Gamma         0                0                0                0                
! Port Impedance         50               0                50               0                
2.122                          0.957623066337284 137.362053811518 0.0319969167557914 178.168531216459 0.0319969167557901 178.168531216461 0.957520647208421 137.413197307097 
! Gamma         0                0                0                0                
! Port Impedance         50               0                50               0                
2.124                          0.957570828857263 137.13948941076  0.031988655783533 177.869584045164 0.0319886557835316 177.869584045166 0.957468182786816 137.190605707962 
! Gamma         0                0                0                0                
! Port Impedance         50               0                50               0                
2.126                          0.957518481129641 136.916850828689 0.0319802356281598 177.570361447972 0.0319802356281585 177.570361447974 0.957415607351728 136.967939147676 
! Gamma         0                0                0                0                
! Port Impedance         50               0                50               0                
2.128                          0.957466022585873 136.694137950726 0.0319716555310871 177.270860505892 0.0319716555310858 177.270860505894 0.957362920335194 136.745197510218 
! Gamma         0                0                0                0                
! Port Impedance         50               0                50               0                
2.13                           0.957413452656929 136.471350662376 0.0319629147322957 176.971078264506 0.0319629147322944 176.971078264508 0.957310121168813 136.522380679664 
! Gamma         0                0                0                0                
! Port Impedance         50               0                50               0                
2.132                          0.957360770773281 136.248488849228 0.0319540124703481 176.671011733446 0.0319540124703467 176.671011733448 0.957257209283733 136.299488540172 
! Gamma         0                0                0                0                
! Port Impedance         50               0                50               0                
2.134                          0.95730797636489 136.02555239694  0.031944947982405 176.370657885859 0.0319449479824036 176.370657885861 0.957204184110637 136.076520975976 
! Gamma         0                0                0                0                
! Port Impedance         50               0                50               0                
2.136                          0.957255068861189 135.80254119124  0.0319357205042433 176.070013657871 0.031935720504242 176.070013657873 0.957151045079727 135.85347787138  
! Gamma         0                0                0                0                
! Port Impedance         50               0                50               0                
2.138                          0.957202047691071 135.579455117908 0.031926329270275 175.769075948034 0.0319263292702737 175.769075948036 0.957097791620713 135.630359110752 
! Gamma         0                0                0                0                
! Port Impedance         50               0                50               0                
2.14                           0.957148912282872 135.356294062779 0.0319167735135669 175.467841616768 0.0319167735135655 175.467841616769 0.957044423162789 135.40716457851  
! Gamma         0                0                0                0                
! Port Impedance         50               0                50               0                
2.142                          0.957095662064352 135.133057911725 0.0319070524658616 175.166307485792 0.0319070524658602 175.166307485794 0.956990939134628 135.183894159118 
! Gamma         0                0                0                0                
! Port Impedance         50               0                50               0                
2.144                          0.957042296462686 134.909746550653 0.0318971653576  174.864470337549 0.0318971653575986 174.864470337551 0.956937338964353 134.96054773708  
! Gamma         0                0                0                0                
! Port Impedance         50               0                50               0                
2.146                          0.956988814904435 134.686359865495 0.0318871114179444 174.562326914616 0.031887111417943 174.562326914618 0.956883622079529 134.737125196924 
! Gamma         0                0                0                0                
! Port Impedance         50               0                50               0                
2.148                          0.956935216815538 134.462897742198 0.0318768898748034 174.259873919107 0.031876889874802 174.259873919109 0.956829787907141 134.513626423202 
! Gamma         0                0                0                0                
! Port Impedance         50               0                50               0                
2.15                           0.956881501621289 134.239360066717 0.0318664999548576 173.95710801207  0.0318664999548563 173.957108012071 0.956775835873572 134.290051300474 
! Gamma         0                0                0                0                
! Port Impedance         50               0                50               0                
2.152                          0.956827668746317 134.015746725005 0.031855940883587 173.654025812861 0.0318559408835856 173.654025812863 0.956721765404589 134.066399713305 
! Gamma         0                0                0                0                
! Port Impedance         50               0                50               0                
2.154                          0.956773717614566 133.792057603006 0.0318452118852993 173.350623898528 0.031845211885298 173.350623898529 0.95666757592532 133.84267154625  
! Gamma         0                0                0                0                
! Port Impedance         50               0                50               0                
2.156                          0.956719647649277 133.568292586641 0.0318343121831605 173.04689880316  0.0318343121831591 173.046898803161 0.956613266860232 133.618866683851 
! Gamma         0                0                0                0                
! Port Impedance         50               0                50               0                
2.158                          0.956665458272962 133.344451561803 0.0318232409992257 172.742847017247 0.0318232409992243 172.742847017249 0.956558837633111 133.394985010622 
! Gamma         0                0                0                0                
! Port Impedance         50               0                50               0                
2.16                           0.956611148907386 133.120534414347 0.0318119975544728 172.438464987017 0.0318119975544715 172.438464987019 0.95650428766704 133.171026411042 
! Gamma         0                0                0                0                
! Port Impedance         50               0                50               0                
2.162                          0.956556718973541 132.896541030078 0.0318005810688366 172.133749113763 0.0318005810688352 172.133749113765 0.956449616384374 132.946990769545 