! Touchstone file exported from HFSS 2022.1.0
!        File:           C:/Users/Hamza Safder/Downloads/PSF-V2 with holder (4).aedt
!        Generated:      11:59:10 PM  Sep 29, 2023
!        Design:         HFSSDesign1
!        Project:        PSF-V2 with holder (4)
!        Setup:          Setup1
!        Solution:       Sweep
!
! Variables:
!        WS = 5mm
!        ax = 15mm
!        az = 3.18mm
!        azd = 3mm
!        bx = 13mm
!        bx2 = 12.5mm
!        bx3 = 3.16mm
!        cin = 27.8mm
!        gap = 0.7mm
!        mid = 3mm
!        shift = 21.24mm
!        strip_1L = 18.62mm
!        substrate_L = 80mm
!        substrate_W = 70mm
!        t = 3mm
!        w50 = 9.18mm
!        wt = 1mm
!        xs = 0.8mm
!        zzz = 8mm
!
# GHz S MA R 50.000000
! Terminal data exported
! Port[1] = ground_T1
! Port[2] = ground_T2
2                              0.960422755222619 150.791812945777 0.0316579835473358 -164.27280693404 0.0316579835473358 -164.27280693404 0.960078370063896 150.812630353377 
! Gamma         0                0                0                0                
! Port Impedance         50               0                50               0                
2.002                          0.960375169322458 150.57345086454  0.0316562300450627 -164.559160282226 0.0316562300450627 -164.559160282226 0.96003076819032 150.5943594996   
! Gamma         0                0                0                0                
! Port Impedance         50               0                50               0                
2.004                          0.960327494899914 150.355021333927 0.0316543427998027 -164.84570393165 0.0316543427998027 -164.84570393165 0.959983077241696 150.376021424978 
! Gamma         0                0                0                0                
! Port Impedance         50               0                50               0                
2.006                          0.960279731374997 150.13652421855  0.0316523211577642 -165.132439294725 0.0316523211577641 -165.132439294725 0.959935296617632 150.157615995163 
! Gamma         0                0                0                0                
! Port Impedance         50               0                50               0                
2.008                          0.960231878166652 149.917959383289 0.0316501644624146 -165.419367802102 0.0316501644624146 -165.419367802102 0.959887425716674 149.939143076079 
! Gamma         0                0                0                0                
! Port Impedance         50               0                50               0                
2.01                           0.960183934692762 149.6993266933   0.0316478720544689 -165.706490902925 0.0316478720544689 -165.706490902926 0.959839463936297 149.720602533927 
! Gamma         0                0                0                0                
! Port Impedance         50               0                50               0                
2.012                          0.960135900370138 149.480626014004 0.0316454432718778 -165.993810065077 0.0316454432718778 -165.993810065077 0.959791410672904 149.50199423518  
! Gamma         0                0                0                0                
! Port Impedance         50               0                50               0                
2.014                          0.960087774614514 149.261857211089 0.0316428774498168 -166.281326775437 0.0316428774498168 -166.281326775437 0.959743265321818 149.283318046581 
! Gamma         0                0                0                0                
! Port Impedance         50               0                50               0                
2.016                          0.960039556840543 149.043020150508 0.0316401739206739 -166.569042540139 0.0316401739206739 -166.569042540139 0.959695027277278 149.064573835138 
! Gamma         0                0                0                0                
! Port Impedance         50               0                50               0                
2.018                          0.959991246461787 148.824114698475 0.0316373320140389 -166.856958884836 0.0316373320140389 -166.856958884836 0.959646695932431 148.845761468128 
! Gamma         0                0                0                0                
! Port Impedance         50               0                50               0                
2.02                           0.959942842890715 148.605140721464 0.0316343510566914 -167.145077354964 0.0316343510566914 -167.145077354965 0.95959827067933 148.626880813087 
! Gamma         0                0                0                0                
! Port Impedance         50               0                50               0                
2.022                          0.959894345538692 148.386098086205 0.0316312303725895 -167.433399516016 0.0316312303725894 -167.433399516017 0.959549750908922 148.407931737815 
! Gamma         0                0                0                0                
! Port Impedance         50               0                50               0                
2.024                          0.959845753815973 148.166986659682 0.0316279692828583 -167.721926953815 0.0316279692828582 -167.721926953816 0.959501136011045 148.188914110365 
! Gamma         0                0                0                0                
! Port Impedance         50               0                50               0                
2.026                          0.959797067131697 147.947806309131 0.0316245671057785 -168.010661274792 0.0316245671057785 -168.010661274793 0.959452425374419 147.969827799049 
! Gamma         0                0                0                0                
! Port Impedance         50               0                50               0                
2.028                          0.959748284893876 147.728556902037 0.0316210231567753 -168.299604106271 0.0316210231567752 -168.299604106272 0.95940361838664 147.75067267243  
! Gamma         0                0                0                0                
! Port Impedance         50               0                50               0                
2.03                           0.95969940650939 147.509238306131 0.0316173367484065 -168.588757096756 0.0316173367484064 -168.588757096757 0.959354714434168 147.531448599321 
! Gamma         0                0                0                0                
! Port Impedance         50               0                50               0                
2.032                          0.959650431383978 147.289850389387 0.0316135071903516 -168.878121916222 0.0316135071903515 -168.878121916223 0.959305712902327 147.312155448779 
! Gamma         0                0                0                0                
! Port Impedance         50               0                50               0                
2.034                          0.959601358922225 147.070393020019 0.0316095337894006 -169.167700256412 0.0316095337894005 -169.167700256413 0.959256613175286 147.092793090109 
! Gamma         0                0                0                0                
! Port Impedance         50               0                50               0                
2.036                          0.959552188527557 146.850866066477 0.0316054158494427 -169.457493831135 0.0316054158494426 -169.457493831137 0.959207414636059 146.873361392852 
! Gamma         0                0                0                0                
! Port Impedance         50               0                50               0                
2.038                          0.959502919602232 146.631269397448 0.0316011526714552 -169.747504376577 0.0316011526714551 -169.747504376579 0.95915811666649 146.65386022679  
! Gamma         0                0                0                0                
! Port Impedance         50               0                50               0                
2.04                           0.959453551547325 146.411602881846 0.0315967435534928 -170.037733651605 0.0315967435534926 -170.037733651607 0.959108718647247 146.434289461937 
! Gamma         0                0                0                0                
! Port Impedance         50               0                50               0                
2.042                          0.959404083762722 146.191866388816 0.031592187790676 -170.328183438085 0.0315921877906759 -170.328183438087 0.959059219957809 146.214648968538 
! Gamma         0                0                0                0                
! Port Impedance         50               0                50               0                
2.044                          0.959354515647107 145.972059787725 0.0315874846751813 -170.618855541201 0.0315874846751812 -170.618855541202 0.959009619976458 145.994938617069 
! Gamma         0                0                0                0                
! Port Impedance         50               0                50               0                
2.046                          0.959304846597953 145.75218294816  0.0315826334962297 -170.909751789777 0.0315826334962296 -170.909751789778 0.958959918080265 145.775158278225 
! Gamma         0                0                0                0                
! Port Impedance         50               0                50               0                
2.048                          0.959255076011506 145.532235739927 0.0315776335400762 -171.200874036611 0.0315776335400761 -171.200874036613 0.958910113645083 145.555307822924 
! Gamma         0                0                0                0                
! Port Impedance         50               0                50               0                
2.05                           0.959205203282779 145.312218033043 0.03157248409    -171.492224158808 0.0315724840899998 -171.49222415881 0.958860206045531 145.335387122302 
! Gamma         0                0                0                0                
! Port Impedance         50               0                50               0                
2.052                          0.959155227805534 145.092129697739 0.0315671844262933 -171.783804058117 0.0315671844262931 -171.783804058118 0.958810194654988 145.115396047705 
! Gamma         0                0                0                0                
! Port Impedance         50               0                50               0                
2.054                          0.959105148972272 144.871970604446 0.0315617338262518 -172.075615661278 0.0315617338262516 -172.07561566128 0.95876007884557 144.895334470692 
! Gamma         0                0                0                0                
! Port Impedance         50               0                50               0                
2.056                          0.95905496617422 144.6517406238   0.0315561315641645 -172.367660920376 0.0315561315641643 -172.367660920378 0.958709857988129 144.675202263025 
! Gamma         0                0                0                0                
! Port Impedance         50               0                50               0                
2.058                          0.959004678801316 144.431439626636 0.0315503769113039 -172.659941813192 0.0315503769113038 -172.659941813193 0.958659531452231 144.454999296667 
! Gamma         0                0                0                0                
! Port Impedance         50               0                50               0                
2.06                           0.958954286242193 144.21106748398  0.0315444691359163 -172.952460343565 0.0315444691359161 -172.952460343567 0.958609098606148 144.23472544378  
! Gamma         0                0                0                0                
! Port Impedance         50               0                50               0                
2.062                          0.958903787884169 143.99062406705  0.0315384075032124 -173.245218541764 0.0315384075032123 -173.245218541766 0.958558558816837 144.014380576718 
! Gamma         0                0                0                0                
! Port Impedance         50               0                50               0                
2.064                          0.958853183113228 143.770109247246 0.0315321912753583 -173.538218464858 0.0315321912753581 -173.53821846486 0.958507911449932 143.793964568023 
! Gamma         0                0                0                0                
! Port Impedance         50               0                50               0                
2.066                          0.958802471314004 143.549522896152 0.031525819711466 -173.831462197093 0.0315258197114658 -173.831462197095 0.958457155869724 143.573477290423 
! Gamma         0                0                0                0                
! Port Impedance         50               0                50               0                
2.068                          0.95875165186977 143.328864885527 0.0315192920675853 -174.124951850283 0.0315192920675852 -174.124951850285 0.958406291439148 143.352918616824 
! Gamma         0                0                0                0                
! Port Impedance         50               0                50               0                
2.07                           0.958700724162412 143.108135087301 0.0315126075966947 -174.418689564196 0.0315126075966946 -174.418689564197 0.958355317519764 143.132288420309 
! Gamma         0                0                0                0                
! Port Impedance         50               0                50               0                
2.072                          0.958649687572423 142.887333373571 0.0315057655486937 -174.712677506953 0.0315057655486935 -174.712677506955 0.958304233471743 142.911586574129 
! Gamma         0                0                0                0                
! Port Impedance         50               0                50               0                
2.074                          0.958598541478876 142.666459616597 0.0314987651703943 -175.006917875435 0.0314987651703941 -175.006917875437 0.958253038653848 142.690812951703 
! Gamma         0                0                0                0                
! Port Impedance         50               0                50               0                
2.076                          0.958547285259411 142.445513688794 0.0314916057055137 -175.30141289569 0.0314916057055135 -175.301412895692 0.958201732423416 142.46996742661  
! Gamma         0                0                0                0                
! Port Impedance         50               0                50               0                
2.078                          0.958495918290212 142.224495462733 0.0314842863946671 -175.596164823352 0.0314842863946669 -175.596164823353 0.958150314136339 142.249049872583 
! Gamma         0                0                0                0                
! Port Impedance         50               0                50               0                
2.08                           0.958444439945993 142.003404811126 0.0314768064753601 -175.891175944063 0.03147680647536 -175.891175944065 0.958098783147048 142.028060163508 
! Gamma         0                0                0                0                
! Port Impedance         50               0                50               0                
2.082                          0.958392849599974 141.782241606833 0.0314691651819829 -176.186448573908 0.0314691651819827 -176.18644857391 0.95804713880849 141.806998173413 
! Gamma         0                0                0                0                
! Port Impedance         50               0                50               0                
2.084                          0.958341146623861 141.561005722844 0.0314613617458031 -176.481985059848 0.0314613617458029 -176.48198505985 0.957995380472108 141.585863776468 
! Gamma         0                0                0                0                
! Port Impedance         50               0                50               0                
2.086                          0.958289330387825 141.339697032285 0.0314533953949604 -176.777787780168 0.0314533953949602 -176.77778778017 0.957943507487822 141.364656846978 
! Gamma         0                0                0                0                
! Port Impedance         50               0                50               0                
2.088                          0.958237400260482 141.118315408403 0.0314452653544609 -177.073859144928 0.0314452653544608 -177.07385914493 0.957891519204008 141.143377259375 
! Gamma         0                0                0                0                
! Port Impedance         50               0                50               0                
2.09                           0.958185355608868 140.896860724566 0.0314369708461723 -177.370201596424 0.0314369708461721 -177.370201596426 0.957839414967474 140.922024888213 
! Gamma         0                0                0                0                
! Port Impedance         50               0                50               0                
2.092                          0.958133195798418 140.675332854255 0.0314285110888186 -177.666817609654 0.0314285110888185 -177.666817609656 0.957787194123436 140.700599608166 
! Gamma         0                0                0                0                
! Port Impedance         50               0                50               0                
2.094                          0.958080920192942 140.453731671058 0.0314198852979767 -177.963709692795 0.0314198852979765 -177.963709692797 0.9577348560155  140.479101294016 
! Gamma         0                0                0                0                
! Port Impedance         50               0                50               0                
2.096                          0.958028528154599 140.232057048666 0.0314110926860722 -178.260880387683 0.031411092686072 -178.260880387686 0.957682399985634 140.257529820651 
! Gamma         0                0                0                0                
! Port Impedance         50               0                50               0                
2.098                          0.957976019043873 140.010308860863 0.0314021324623765 -178.558332270308 0.0314021324623763 -178.55833227031 0.957629825374143 140.035885063059 
! Gamma         0                0                0                0                
! Port Impedance         50               0                50               0                
2.1                            0.957923392219549 139.788486981521 0.0313930038330039 -178.856067951308 0.0313930038330038 -178.856067951311 0.957577131519645 139.814166896319 
! Gamma         0                0                0                0                
! Port Impedance         50               0                50               0                
2.102                          0.957870647038684 139.566591284596 0.0313837060009102 -179.154090076482 0.03138370600091 -179.154090076485 0.957524317759047 139.592375195595 
! Gamma         0                0                0                0                
! Port Impedance         50               0                50               0                
2.104                          0.957817782856582 139.344621644119 0.0313742381658901 -179.452401327303 0.0313742381658899 -179.452401327305 0.957471383427512 139.370509836131 
! Gamma         0                0                0                0                
! Port Impedance         50               0                50               0                
2.106                          0.957764799026764 139.122577934189 0.0313645995245774 -179.751004421441 0.0313645995245773 -179.751004421443 0.95741832785844 139.148570693245 
! Gamma         0                0                0                0                
! Port Impedance         50               0                50               0                
2.108                          0.957711694900943 138.900460028966 0.0313547892704442 179.950097886699 0.031354789270444 179.950097886697 0.957365150383432 138.926557642318 
! Gamma         0                0                0                0                
! Port Impedance         50               0                50               0                
2.11                           0.957658469828988 138.678267802666 0.0313448065938012 179.650902805437 0.031344806593801 179.650902805435 0.957311850332267 138.70447055879  
! Gamma         0                0                0                0                
! Port Impedance         50               0                50               0                
2.112                          0.957605123158903 138.456001129551 0.0313346506817994 179.351407505266 0.0313346506817992 179.351407505264 0.957258427032868 138.482309318152 
! Gamma         0                0                0                0                
! Port Impedance         50               0                50               0                
2.114                          0.957551654236788 138.233659883925 0.0313243207184313 179.051609118291 0.0313243207184311 179.051609118288 0.957204879811272 138.260073795941 
! Gamma         0                0                0                0                
! Port Impedance         50               0                50               0                
2.116                          0.957498062406813 138.011243940123 0.0313138158845338 178.751504737657 0.0313138158845337 178.751504737655 0.957151207991603 138.037763867728 
! Gamma         0                0                0                0                
! Port Impedance         50               0                50               0                
2.118                          0.957444347011181 137.788753172505 0.0313031353577917 178.451091416972 0.0313031353577915 178.451091416969 0.957097410896033 137.815379409114 
! Gamma         0                0                0                0                
! Port Impedance         50               0                50               0                
2.12                           0.957390507390097 137.566187455448 0.0312922783127414 178.150366169711 0.0312922783127412 178.150366169708 0.957043487844755 137.592920295721 
! Gamma         0                0                0                0                
! Port Impedance         50               0                50               0                
2.122                          0.957336542881736 137.343546663339 0.0312812439207765 177.84932596862  0.0312812439207763 177.849325968617 0.956989438155945 137.370386403182 
! Gamma         0                0                0                0                
! Port Impedance         50               0                50               0                
2.124                          0.957282452822203 137.120830670566 0.0312700313501532 177.547967745103 0.031270031350153 177.547967745101 0.95693526114573 137.147777607139 
! Gamma         0                0                0                0                
! Port Impedance         50               0                50               0                
2.126                          0.957228236545499 136.898039351509 0.0312586397659976 177.246288388602 0.0312586397659974 177.2462883886   0.95688095612815 136.925093783228 
! Gamma         0                0                0                0                
! Port Impedance         50               0                50               0                
2.128                          0.957173893383487 136.675172580532 0.0312470683303131 176.944284745963 0.0312470683303129 176.944284745961 0.956826522415123 136.702334807073 
! Gamma         0                0                0                0                
! Port Impedance         50               0                50               0                
2.13                           0.95711942266585 136.452230231977 0.0312353162019895 176.641953620794 0.0312353162019893 176.641953620792 0.956771959316408 136.479500554279 
! Gamma         0                0                0                0                
! Port Impedance         50               0                50               0                
2.132                          0.957064823720054 136.22921218015  0.0312233825368125 176.33929177281  0.0312233825368124 176.339291772807 0.956717266139565 136.256590900423 
! Gamma         0                0                0                0                
! Port Impedance         50               0                50               0                
2.134                          0.957010095871308 136.006118299317 0.0312112664874749 176.036295917165 0.0312112664874748 176.036295917163 0.956662442189916 136.033605721041 
! Gamma         0                0                0                0                
! Port Impedance         50               0                50               0                
2.136                          0.956955238442526 135.782948463692 0.0311989672035883 175.732962723782 0.0311989672035881 175.732962723779 0.956607486770505 135.810544891627 
! Gamma         0                0                0                0                
! Port Impedance         50               0                50               0                
2.138                          0.956900250754279 135.559702547431 0.0311864838316964 175.429288816652 0.0311864838316963 175.42928881665  0.956552399182058 135.587408287614 
! Gamma         0                0                0                0                
! Port Impedance         50               0                50               0                
2.14                           0.956845132124759 135.336380424618 0.0311738155152896 175.125270773144 0.0311738155152894 175.125270773141 0.956497178722936 135.364195784373 
! Gamma         0                0                0                0                
! Port Impedance         50               0                50               0                
2.142                          0.956789881869732 135.112981969258 0.03116096139482 174.820905123282 0.0311609613948199 174.820905123279 0.956441824689098 135.140907257198 
! Gamma         0                0                0                0                
! Port Impedance         50               0                50               0                
2.144                          0.956734499302491 134.889507055267 0.0311479206077191 174.516188349024 0.0311479206077189 174.516188349021 0.956386336374051 134.917542581298 
! Gamma         0                0                0                0                
! Port Impedance         50               0                50               0                
2.146                          0.956678983733817 134.665955556464 0.0311346922884152 174.21111688352  0.0311346922884151 174.211116883518 0.956330713068807 134.69410163179  
! Gamma         0                0                0                0                
! Port Impedance         50               0                50               0                
2.148                          0.956623334471921 134.442327346555 0.0311212755683539 173.905687110361 0.0311212755683537 173.905687110359 0.956274954061836 134.470584283683 
! Gamma         0                0                0                0                
! Port Impedance         50               0                50               0                
2.15                           0.956567550822409 134.21862229913  0.0311076695760185 173.599895362811 0.0311076695760183 173.599895362809 0.956219058639016 134.246990411872 
! Gamma         0                0                0                0                
! Port Impedance         50               0                50               0                
2.152                          0.956511632088222 133.994840287646 0.0310938734369529 173.293737923029 0.0310938734369528 173.293737923027 0.956163026083589 134.023319891126 
! Gamma         0                0                0                0                
! Port Impedance         50               0                50               0                
2.154                          0.95645557756959 133.770981185422 0.031079886273786 172.987211021274 0.0310798862737858 172.987211021271 0.956106855676106 133.799572596079 
! Gamma         0                0                0                0                
! Port Impedance         50               0                50               0                
2.156                          0.95639938656398 133.547044865623 0.0310657072062567 172.680310835096 0.0310657072062565 172.680310835093 0.956050546694376 133.575748401216 
! Gamma         0                0                0                0                
! Port Impedance         50               0                50               0                
2.158                          0.956343058366043 133.323031201253 0.0310513353512424 172.373033488518 0.0310513353512422 172.373033488516 0.955994098413416 133.351847180864 
! Gamma         0                0                0                0                
! Port Impedance         50               0                50               0                
2.16                           0.956286592267559 133.098940065139 0.0310367698227872 172.065375051194 0.0310367698227871 172.065375051191 0.955937510105396 133.127868809181 
! Gamma         0                0                0                0                
! Port Impedance         50               0                50               0                
2.162                          0.956229987557382 132.874771329924 0.0310220097321336 171.757331537557 0.0310220097321335 171.757331537554 0.955880781039582 132.903813160142 