! Touchstone file exported from HFSS 2022.1.0
!        File:           C:/Users/Hamza Safder/Downloads/PSF-V2 with holder (2).aedt
!        Generated:      12:00:03 AM  Sep 22, 2023
!        Design:         HFSSDesign1
!        Project:        PSF-V2 with holder (2)
!        Setup:          Setup1
!        Solution:       Sweep
!
! Variables:
!        WS = 5mm
!        ax = 15mm
!        az = 3.18mm
!        azd = 3mm
!        bx = 13mm
!        bx2 = 12.5mm
!        bx3 = 3.16mm
!        cin = 27.8mm
!        gap = 0.7mm
!        mid = 3mm
!        shift = 21.24mm
!        strip_1L = 18.62mm
!        substrate_L = 80mm
!        substrate_W = 70mm
!        t = 3mm
!        w50 = 9.18mm
!        wt = 1mm
!        xs = 0.8mm
!        zzz = 8mm
!
# GHz S MA R 50.000000
! Terminal data exported
! Port[1] = ground_T1
! Port[2] = ground_T2
2                              0.960603187617059 150.786520154434 0.0320234310247221 -164.343939761831 0.0320234310247219 -164.343939761831 0.960514982365157 150.837707461993 
! Gamma         0                0                0                0                
! Port Impedance         50               0                50               0                
2.002                          0.96055638999564 150.568187365536 0.0320228124108149 -164.632780975034 0.0320228124108147 -164.632780975034 0.960467983570571 150.619392411332 
! Gamma         0                0                0                0                
! Port Impedance         50               0                50               0                
2.004                          0.960509517308958 150.349787294741 0.0320220757296315 -164.921773904862 0.0320220757296312 -164.921773904862 0.960420909091636 150.401009386809 
! Gamma         0                0                0                0                
! Port Impedance         50               0                50               0                
2.006                          0.960462568986622 150.131319809414 0.0320212202759112 -165.210920257008 0.0320212202759108 -165.210920257008 0.960373758355296 150.182558254054 
! Gamma         0                0                0                0                
! Port Impedance         50               0                50               0                
2.008                          0.960415544457779 149.91278477721  0.0320202453431485 -165.500221753691 0.0320202453431482 -165.500221753692 0.960326530788072 149.964038878991 
! Gamma         0                0                0                0                
! Port Impedance         50               0                50               0                
2.01                           0.960368443151115 149.69418206608  0.0320191502235872 -165.789680133882 0.0320191502235868 -165.789680133883 0.960279225816067 149.745451127846 
! Gamma         0                0                0                0                
! Port Impedance         50               0                50               0                
2.012                          0.960321264494861 149.475511544263 0.0320179342082141 -166.079297153536 0.0320179342082136 -166.079297153536 0.960231842864971 149.526794867136 
! Gamma         0                0                0                0                
! Port Impedance         50               0                50               0                
2.014                          0.960274007916794 149.256773080287 0.0320165965867531 -166.369074585826 0.0320165965867526 -166.369074585827 0.960184381360062 149.308069963671 
! Gamma         0                0                0                0                
! Port Impedance         50               0                50               0                
2.016                          0.960226672844242 149.037966542967 0.0320151366476599 -166.65901422139 0.0320151366476594 -166.659014221391 0.960136840726212 149.089276284554 
! Gamma         0                0                0                0                
! Port Impedance         50               0                50               0                
2.018                          0.960179258704089 148.819091801401 0.0320135536781163 -166.949117868566 0.0320135536781157 -166.949117868566 0.960089220387889 148.870413697175 
! Gamma         0                0                0                0                
! Port Impedance         50               0                50               0                
2.02                           0.960131764922777 148.600148724968 0.0320118469640242 -167.239387353642 0.0320118469640236 -167.239387353642 0.960041519769162 148.651482069207 
! Gamma         0                0                0                0                
! Port Impedance         50               0                50               0                
2.022                          0.960084190926306 148.381137183329 0.0320100157900011 -167.529824521107 0.0320100157900005 -167.529824521108 0.959993738293703 148.432481268613 
! Gamma         0                0                0                0                
! Port Impedance         50               0                50               0                
2.024                          0.960036536140241 148.16205704642  0.0320080594393743 -167.820431233907 0.0320080594393736 -167.820431233907 0.959945875384789 148.21341116363  
! Gamma         0                0                0                0                
! Port Impedance         50               0                50               0                
2.026                          0.959988799989713 147.94290818445  0.032005977194176 -168.111209373696 0.0320059771941752 -168.111209373697 0.959897930465306 147.994271622781 
! Gamma         0                0                0                0                
! Port Impedance         50               0                50               0                
2.028                          0.959940981899421 147.723690467904 0.0320037683351385 -168.402160841107 0.0320037683351377 -168.402160841108 0.959849902957751 147.775062514859 
! Gamma         0                0                0                0                
! Port Impedance         50               0                50               0                
2.03                           0.959893081293633 147.504403767532 0.0320014321416896 -168.693287556012 0.0320014321416887 -168.693287556013 0.959801792284235 147.555783708935 
! Gamma         0                0                0                0                
! Port Impedance         50               0                50               0                
2.032                          0.959845097596192 147.285047954352 0.0319989678919476 -168.984591457793 0.0319989678919467 -168.984591457794 0.959753597866485 147.336435074348 
! Gamma         0                0                0                0                
! Port Impedance         50               0                50               0                
2.034                          0.959797030230512 147.065622899648 0.0319963748627175 -169.276074505618 0.0319963748627167 -169.276074505619 0.959705319125842 147.117016480708 
! Gamma         0                0                0                0                
! Port Impedance         50               0                50               0                
2.036                          0.959748878619586 146.846128474962 0.0319936523294867 -169.567738678716 0.0319936523294858 -169.567738678717 0.95965695548327 146.897527797886 
! Gamma         0                0                0                0                
! Port Impedance         50               0                50               0                
2.038                          0.959700642185981 146.626564552095 0.0319907995664207 -169.859585976663 0.0319907995664197 -169.859585976664 0.95960850635935 146.677968896019 
! Gamma         0                0                0                0                
! Port Impedance         50               0                50               0                
2.04                           0.959652320351843 146.406931003101 0.0319878158463597 -170.151618419666 0.0319878158463587 -170.151618419667 0.959559971174288 146.458339645502 
! Gamma         0                0                0                0                
! Port Impedance         50               0                50               0                
2.042                          0.959603912538897 146.187227700289 0.0319847004408152 -170.443838048856 0.0319847004408142 -170.443838048857 0.959511349347908 146.238639916986 
! Gamma         0                0                0                0                
! Port Impedance         50               0                50               0                
2.044                          0.959555418168448 145.967454516214 0.0319814526199665 -170.736246926581 0.0319814526199654 -170.736246926582 0.95946264029966 146.018869581373 
! Gamma         0                0                0                0                
! Port Impedance         50               0                50               0                
2.046                          0.959506836661379 145.747611323676 0.0319780716526576 -171.02884713671 0.0319780716526565 -171.028847136711 0.959413843448619 145.799028509818 
! Gamma         0                0                0                0                
! Port Impedance         50               0                50               0                
2.048                          0.959458167438155 145.52769799572  0.0319745568063948 -171.321640784934 0.0319745568063936 -171.321640784935 0.959364958213478 145.57911657372  
! Gamma         0                0                0                0                
! Port Impedance         50               0                50               0                
2.05                           0.959409409918819 145.307714405625 0.0319709073473437 -171.614629999078 0.0319709073473426 -171.614629999079 0.95931598401256 145.359133644721 
! Gamma         0                0                0                0                
! Port Impedance         50               0                50               0                
2.052                          0.959360563522994 145.087660426907 0.0319671225403276 -171.907816929413 0.0319671225403265 -171.907816929415 0.959266920263807 145.139079594702 
! Gamma         0                0                0                0                
! Port Impedance         50               0                50               0                
2.054                          0.959311627669881 144.867535933314 0.0319632016488252 -172.201203748979 0.031963201648824 -172.20120374898 0.959217766384786 144.91895429578  
! Gamma         0                0                0                0                
! Port Impedance         50               0                50               0                
2.056                          0.959262601778259 144.64734079882  0.0319591439349691 -172.494792653904 0.0319591439349679 -172.494792653905 0.959168521792684 144.698757620303 
! Gamma         0                0                0                0                
! Port Impedance         50               0                50               0                
2.058                          0.959213485266483 144.427074897623 0.0319549486595444 -172.788585863735 0.0319549486595432 -172.788585863737 0.95911918590431 144.478489440848 
! Gamma         0                0                0                0                
! Port Impedance         50               0                50               0                
2.06                           0.959164277552484 144.20673810414  0.031950615081988 -173.082585621776 0.0319506150819868 -173.082585621777 0.95906975813609 144.258149630214 
! Gamma         0                0                0                0                
! Port Impedance         50               0                50               0                
2.062                          0.959114978053764 143.986330293004 0.031946142460388 -173.37679419542 0.0319461424603867 -173.376794195421 0.95902023790407 144.037738061423 
! Gamma         0                0                0                0                
! Port Impedance         50               0                50               0                
2.064                          0.959065586187398 143.765851339061 0.0319415300514831 -173.6712138765  0.0319415300514818 -173.671213876502 0.958970624623909 143.81725460771  
! Gamma         0                0                0                0                
! Port Impedance         50               0                50               0                
2.066                          0.959016101370026 143.545301117362 0.0319367771106634 -173.965846981638 0.0319367771106621 -173.965846981639 0.958920917710881 143.596699142523 
! Gamma         0                0                0                0                
! Port Impedance         50               0                50               0                
2.068                          0.958966523017858 143.324679503162 0.0319318828919704 -174.260695852596 0.0319318828919691 -174.260695852598 0.958871116579866 143.376071539517 
! Gamma         0                0                0                0                
! Port Impedance         50               0                50               0                
2.07                           0.958916850546662 143.103986371914 0.0319268466480982 -174.555762856645 0.0319268466480968 -174.555762856646 0.958821220645357 143.155371672549 
! Gamma         0                0                0                0                
! Port Impedance         50               0                50               0                
2.072                          0.95886708337177 142.883221599266 0.0319216676303949 -174.851050386923 0.0319216676303936 -174.851050386925 0.958771229321445 142.934599415675 
! Gamma         0                0                0                0                
! Port Impedance         50               0                50               0                
2.074                          0.958817220908064 142.662385061056 0.0319163450888647 -175.146560862817 0.0319163450888633 -175.146560862819 0.958721142021824 142.713754643146 
! Gamma         0                0                0                0                
! Port Impedance         50               0                50               0                
2.076                          0.95876726256998 142.441476633303 0.0319108782721696 -175.442296730334 0.0319108782721682 -175.442296730335 0.958670958159783 142.492837229399 
! Gamma         0                0                0                0                
! Port Impedance         50               0                50               0                
2.078                          0.958717207771503 142.22049619221  0.0319052664276329 -175.738260462488 0.0319052664276314 -175.73826046249 0.958620677148204 142.271847049058 
! Gamma         0                0                0                0                
! Port Impedance         50               0                50               0                
2.08                           0.958667055926155 141.999443614153 0.0318995088012419 -176.034454559694 0.0318995088012405 -176.034454559696 0.958570298399552 142.050783976924 
! Gamma         0                0                0                0                
! Port Impedance         50               0                50               0                
2.082                          0.958616806446998 141.778318775678 0.0318936046376524 -176.33088155016 0.0318936046376509 -176.330881550162 0.958519821325878 141.829647887973 
! Gamma         0                0                0                0                
! Port Impedance         50               0                50               0                
2.084                          0.958566458746625 141.557121553496 0.0318875531801923 -176.627543990293 0.0318875531801908 -176.627543990295 0.958469245338806 141.608438657349 
! Gamma         0                0                0                0                
! Port Impedance         50               0                50               0                
2.086                          0.958516012237154 141.335851824475 0.0318813536708672 -176.924444465108 0.0318813536708657 -176.92444446511 0.958418569849531 141.387156160362 
! Gamma         0                0                0                0                
! Port Impedance         50               0                50               0                
2.088                          0.95846546633022 141.114509465642 0.0318750053503656 -177.221585588646 0.0318750053503641 -177.221585588647 0.958367794268811 141.165800272476 
! Gamma         0                0                0                0                
! Port Impedance         50               0                50               0                
2.09                           0.958414820436975 140.893094354167 0.0318685074580651 -177.518970004392 0.0318685074580636 -177.518970004394 0.958316918006962 140.944370869312 
! Gamma         0                0                0                0                
! Port Impedance         50               0                50               0                
2.092                          0.958364073968071 140.671606367366 0.031861859232039 -177.816600385712 0.0318618592320375 -177.816600385713 0.958265940473849 140.722867826634 
! Gamma         0                0                0                0                
! Port Impedance         50               0                50               0                
2.094                          0.95831322633366 140.450045382691 0.0318550599090642 -178.114479436283 0.0318550599090627 -178.114479436285 0.958214861078881 140.501291020351 
! Gamma         0                0                0                0                
! Port Impedance         50               0                50               0                
2.096                          0.958262276943383 140.228411277726 0.0318481087246286 -178.412609890543 0.0318481087246271 -178.412609890545 0.958163679231   140.279640326504 
! Gamma         0                0                0                0                
! Port Impedance         50               0                50               0                
2.098                          0.958211225206363 140.006703930179 0.0318410049129405 -178.710994514136 0.0318410049129389 -178.710994514138 0.958112394338672 140.057915621265 
! Gamma         0                0                0                0                
! Port Impedance         50               0                50               0                
2.1                            0.958160070531195 139.784923217878 0.0318337477069376 -179.009636104374 0.0318337477069361 -179.009636104376 0.958061005809883 139.836116780929 
! Gamma         0                0                0                0                
! Port Impedance         50               0                50               0                
2.102                          0.958108812325934 139.563069018762 0.0318263363382979 -179.308537490702 0.0318263363382964 -179.308537490704 0.958009513052126 139.614243681907 
! Gamma         0                0                0                0                
! Port Impedance         50               0                50               0                
2.104                          0.958057449998094 139.341141210879 0.0318187700374502 -179.607701535171 0.0318187700374487 -179.607701535173 0.957957915472391 139.392296200721 
! Gamma         0                0                0                0                
! Port Impedance         50               0                50               0                
2.106                          0.958005982954626 139.119139672374 0.0318110480335862 -179.90713113292 0.0318110480335846 -179.907131132922 0.957906212477156 139.170274213997 
! Gamma         0                0                0                0                
! Port Impedance         50               0                50               0                
2.108                          0.957954410601916 138.897064281488 0.0318031695546732 179.793170787337 0.0318031695546716 179.793170787335 0.957854403472374 138.948177598458 
! Gamma         0                0                0                0                
! Port Impedance         50               0                50               0                
2.11                           0.957902732345771 138.674914916547 0.0317951338274676 179.493201262812 0.031795133827466 179.49320126281  0.957802487863466 138.726006230917 
! Gamma         0                0                0                0                
! Port Impedance         50               0                50               0                
2.112                          0.957850947591406 138.452691455956 0.0317869400775295 179.192957296138 0.0317869400775279 179.192957296136 0.957750465055306 138.503759988271 
! Gamma         0                0                0                0                
! Port Impedance         50               0                50               0                
2.114                          0.957799055743434 138.230393778193 0.0317785875292382 178.892435854857 0.0317785875292365 178.892435854855 0.957698334452208 138.281438747493 
! Gamma         0                0                0                0                
! Port Impedance         50               0                50               0                
2.116                          0.95774705620585 138.008021761801 0.031770075405808 178.591633870897 0.0317700754058064 178.591633870895 0.957646095457915 138.059042385625 
! Gamma         0                0                0                0                
! Port Impedance         50               0                50               0                
2.118                          0.957694948382023 137.785575285381 0.0317614029293065 178.290548240041 0.0317614029293049 178.290548240039 0.957593747475586 137.836570779772 
! Gamma         0                0                0                0                
! Port Impedance         50               0                50               0                
2.12                           0.957642731674676 137.563054227584 0.0317525693206722 177.989175821387 0.0317525693206706 177.989175821385 0.957541289907779 137.61402380709  
! Gamma         0                0                0                0                
! Port Impedance         50               0                50               0                
2.122                          0.957590405485875 137.340458467105 0.0317435737997343 177.687513436803 0.0317435737997327 177.687513436801 0.957488722156441 137.391401344785 
! Gamma         0                0                0                0                
! Port Impedance         50               0                50               0                
2.124                          0.957537969217013 137.117787882671 0.0317344155852332 177.385557870365 0.0317344155852316 177.385557870363 0.957436043622888 137.1687032701   
! Gamma         0                0                0                0                
! Port Impedance         50               0                50               0                
2.126                          0.957485422268797 136.895042353039 0.0317250938948424 177.083305867794 0.0317250938948408 177.083305867792 0.957383253707793 136.945929460308 
! Gamma         0                0                0                0                
! Port Impedance         50               0                50               0                
2.128                          0.957432764041225 136.672221756982 0.0317156079451913 176.780754135875 0.0317156079451896 176.780754135873 0.957330351811169 136.723079792707 
! Gamma         0                0                0                0                
! Port Impedance         50               0                50               0                
2.13                           0.957379993933579 136.449325973287 0.031705956951889 176.477899341878 0.0317059569518874 176.477899341876 0.957277337332349 136.500154144606 
! Gamma         0                0                0                0                
! Port Impedance         50               0                50               0                
2.132                          0.957327111344397 136.22635488074  0.0316961401295503 176.174738112954 0.0316961401295486 176.174738112952 0.957224209669974 136.277152393322 
! Gamma         0                0                0                0                
! Port Impedance         50               0                50               0                
2.134                          0.957274115671464 136.003308358121 0.031686156691822 175.871267035535 0.0316861566918203 175.871267035533 0.957170968221969 136.054074416168 
! Gamma         0                0                0                0                
! Port Impedance         50               0                50               0                
2.136                          0.957221006311788 135.780186284196 0.0316760058514109 175.567482654718 0.0316760058514092 175.567482654716 0.957117612385528 135.830920090447 
! Gamma         0                0                0                0                
! Port Impedance         50               0                50               0                
2.138                          0.957167782661581 135.556988537706 0.0316656868201135 175.263381473633 0.0316656868201119 175.263381473631 0.957064141557094 135.607689293439 
! Gamma         0                0                0                0                
! Port Impedance         50               0                50               0                
2.14                           0.957114444116241 135.333714997359 0.0316551988088469 174.958959952812 0.0316551988088452 174.95895995281  0.957010555132336 135.384381902396 
! Gamma         0                0                0                0                
! Port Impedance         50               0                50               0                
2.142                          0.95706099007033 135.11036554182  0.0316445410276807 174.654214509538 0.0316445410276791 174.654214509536 0.956956852506131 135.16099779453  
! Gamma         0                0                0                0                
! Port Impedance         50               0                50               0                
2.144                          0.957007419917551 134.886940049703 0.0316337126858716 174.349141517186 0.03163371268587 174.349141517184 0.956903033072543 134.937536847006 
! Gamma         0                0                0                0                
! Port Impedance         50               0                50               0                
2.146                          0.95695373305073 134.663438399558 0.0316227129918985 174.043737304555 0.0316227129918968 174.043737304553 0.956849096224797 134.713998936928 
! Gamma         0                0                0                0                
! Port Impedance         50               0                50               0                
2.148                          0.956899928861787 134.439860469867 0.0316115411534996 173.737998155182 0.031611541153498 173.73799815518  0.95679504135526 134.490383941334 
! Gamma         0                0                0                0                
! Port Impedance         50               0                50               0                
2.15                           0.956846006741719 134.216206139028 0.0316001963777117 173.431920306655 0.0316001963777101 173.431920306653 0.956740867855411 134.266691737185 
! Gamma         0                0                0                0                
! Port Impedance         50               0                50               0                
2.152                          0.956791966080571 133.992475285348 0.0315886778709103 173.1254999499   0.0315886778709087 173.125499949898 0.956686575115825 134.04292220135  
! Gamma         0                0                0                0                
! Port Impedance         50               0                50               0                
2.154                          0.95673780626741 133.768667787033 0.0315769848388525 172.818733228473 0.0315769848388509 172.818733228471 0.956632162526141 133.819075210602 
! Gamma         0                0                0                0                
! Port Impedance         50               0                50               0                
2.156                          0.956683526690303 133.544783522176 0.0315651164867209 172.51161623782  0.0315651164867192 172.511616237818 0.956577629475039 133.595150641604 
! Gamma         0                0                0                0                
! Port Impedance         50               0                50               0                
2.158                          0.956629126736288 133.320822368745 0.03155307201917 172.204145024544 0.0315530720191684 172.204145024542 0.956522975350209 133.3711483709   
! Gamma         0                0                0                0                
! Port Impedance         50               0                50               0                
2.16                           0.956574605791345 133.096784204576 0.0315408506403748 171.896315585644 0.0315408506403732 171.896315585642 0.956468199538327 133.147068274901 
! Gamma         0                0                0                0                
! Port Impedance         50               0                50               0                
2.162                          0.956519963240368 132.87266890736  0.0315284515540805 171.588123867749 0.0315284515540789 171.588123867747 0.956413301425027 132.922910229876 