! Touchstone file exported from HFSS 2022.1.0
!        File:           C:/Users/Hamza Safder/Downloads/PSF-V2 with holder.aedt
!        Generated:      5:43:15 PM  Sep 29, 2023
!        Design:         HFSSDesign1
!        Project:        PSF-V2 with holder
!        Setup:          Setup1
!        Solution:       Sweep
!
! Variables:
!        WS = 5mm
!        ax = 15mm
!        az = 3.18mm
!        azd = 3mm
!        bx = 13mm
!        bx2 = 12.5mm
!        bx3 = 3.16mm
!        cin = 27.8mm
!        gap = 0.7mm
!        mid = 3mm
!        shift = 21.24mm
!        strip_1L = 18.62mm
!        substrate_L = 80mm
!        substrate_W = 70mm
!        t = 3mm
!        w50 = 9.18mm
!        wt = 1mm
!        xs = 0.8mm
!        zzz = 8mm
!
# GHz S MA R 50.000000
! Terminal data exported
! Port[1] = ground_T1
! Port[2] = ground_T2
2                              0.960123950127744 150.678398974836 0.0305858382752273 -165.656440003838 0.0305858382752274 -165.656440003838 0.960050954428376 150.675173603599 
! Gamma         0                0                0                0                
! Port Impedance         50               0                50               0                
2.002                          0.960073822792879 150.459533007775 0.0305809312425754 -165.954651206423 0.0305809312425756 -165.954651206423 0.960000245804788 150.456324967819 
! Gamma         0                0                0                0                
! Port Impedance         50               0                50               0                
2.004                          0.960023605248019 150.24059539874  0.0305758480182176 -166.253096910594 0.0305758480182177 -166.253096910594 0.959949445966244 150.237405221337 
! Gamma         0                0                0                0                
! Port Impedance         50               0                50               0                
2.006                          0.95997329672081 150.021585984295 0.0305705878639557 -166.551779755175 0.0305705878639559 -166.551779755175 0.959898554152512 150.018414201129 
! Gamma         0                0                0                0                
! Port Impedance         50               0                50               0                
2.008                          0.959922896436108 149.80250460105  0.0305651500381165 -166.85070240908 0.0305651500381167 -166.85070240908 0.959847569600491 149.799351744209 
! Gamma         0                0                0                0                
! Port Impedance         50               0                50               0                
2.01                           0.959872403615956 149.583351085661 0.0305595337955361 -167.149867571758 0.0305595337955362 -167.149867571758 0.959796491544187 149.580217687628 
! Gamma         0                0                0                0                
! Port Impedance         50               0                50               0                
2.012                          0.959821817479554 149.364125274821 0.030553738387546 -167.449277973649 0.0305537383875462 -167.449277973649 0.95974531921468 149.361011868463 
! Gamma         0                0                0                0                
! Port Impedance         50               0                50               0                
2.014                          0.959771137243236 149.14482700526  0.0305477630619591 -167.748936376654 0.0305477630619592 -167.748936376654 0.9596940518401  149.141734123817 
! Gamma         0                0                0                0                
! Port Impedance         50               0                50               0                
2.016                          0.959720362120437 148.925456113735 0.0305416070630556 -168.048845574599 0.0305416070630558 -168.048845574599 0.959642688645593 148.922384290812 
! Gamma         0                0                0                0                
! Port Impedance         50               0                50               0                
2.018                          0.959669491321666 148.706012437028 0.0305352696315706 -168.349008393724 0.0305352696315707 -168.349008393723 0.959591228853294 148.702962206584 
! Gamma         0                0                0                0                
! Port Impedance         50               0                50               0                
2.02                           0.959618524054478 148.486495811937 0.0305287500046803 -168.649427693165 0.0305287500046805 -168.649427693164 0.959539671682296 148.483467708276 
! Gamma         0                0                0                0                
! Port Impedance         50               0                50               0                
2.022                          0.959567459523442 148.266906075276 0.0305220474159907 -168.950106365455 0.0305220474159909 -168.950106365454 0.959488016348618 148.263900633037 
! Gamma         0                0                0                0                
! Port Impedance         50               0                50               0                
2.024                          0.959516296930107 148.047243063862 0.0305151610955251 -169.251047337027 0.0305151610955253 -169.251047337027 0.95943626206517 148.044260818008 
! Gamma         0                0                0                0                
! Port Impedance         50               0                50               0                
2.026                          0.959465035472975 147.827506614518 0.0305080902697131 -169.552253568732 0.0305080902697133 -169.552253568732 0.959384408041726 147.824548100326 
! Gamma         0                0                0                0                
! Port Impedance         50               0                50               0                
2.028                          0.959413674347468 147.607696564057 0.0305008341613796 -169.853728056356 0.0305008341613798 -169.853728056356 0.959332453484883 147.60476231711  
! Gamma         0                0                0                0                
! Port Impedance         50               0                50               0                
2.03                           0.959362212745889 147.387812749286 0.0304933919897348 -170.155473831156 0.030493391989735 -170.155473831156 0.959280397598032 147.38490330546  
! Gamma         0                0                0                0                
! Port Impedance         50               0                50               0                
2.032                          0.959310649857394 147.16785500699  0.0304857629703644 -170.457493960403 0.0304857629703645 -170.457493960403 0.95922823958132 147.164970902448 
! Gamma         0                0                0                0                
! Port Impedance         50               0                50               0                
2.034                          0.959258984867952 146.947823173936 0.0304779463152204 -170.759791547928 0.0304779463152206 -170.759791547928 0.959175978631611 146.944964945112 
! Gamma         0                0                0                0                
! Port Impedance         50               0                50               0                
2.036                          0.959207216960314 146.727717086857 0.0304699412326132 -171.062369734684 0.0304699412326134 -171.062369734684 0.959123613942455 146.724885270453 
! Gamma         0                0                0                0                
! Port Impedance         50               0                50               0                
2.038                          0.959155345313973 146.507536582451 0.0304617469272032 -171.365231699318 0.0304617469272034 -171.365231699318 0.959071144704045 146.504731715422 
! Gamma         0                0                0                0                
! Port Impedance         50               0                50               0                
2.04                           0.959103369105124 146.287281497374 0.0304533625999941 -171.668380658749 0.0304533625999943 -171.668380658749 0.959018570103181 146.284504116919 
! Gamma         0                0                0                0                
! Port Impedance         50               0                50               0                
2.042                          0.959051287506632 146.066951668231 0.0304447874483265 -171.971819868759 0.0304447874483267 -171.971819868759 0.958965889323226 146.064202311784 
! Gamma         0                0                0                0                
! Port Impedance         50               0                50               0                
2.044                          0.958999099687986 145.84654693157  0.0304360206658722 -172.275552624591 0.0304360206658724 -172.275552624591 0.95891310154407 145.843826136789 
! Gamma         0                0                0                0                
! Port Impedance         50               0                50               0                
2.046                          0.958946804815263 145.626067123874 0.0304270614426296 -172.579582261565 0.0304270614426297 -172.579582261565 0.958860205942087 145.623375428631 
! Gamma         0                0                0                0                
! Port Impedance         50               0                50               0                
2.048                          0.958894402051083 145.405512081556 0.0304179089649193 -172.883912155696 0.0304179089649194 -172.883912155696 0.958807201690088 145.402850023927 
! Gamma         0                0                0                0                
! Port Impedance         50               0                50               0                
2.05                           0.958841890554569 145.184881640951 0.0304085624153814 -173.188545724326 0.0304085624153816 -173.188545724326 0.958754087957284 145.182249759204 
! Gamma         0                0                0                0                
! Port Impedance         50               0                50               0                
2.052                          0.958789269481305 144.964175638304 0.030399020972973 -173.493486426774 0.0303990209729732 -173.493486426773 0.958700863909238 144.961574470894 
! Gamma         0                0                0                0                
! Port Impedance         50               0                50               0                
2.054                          0.958736537983288 144.743393909768 0.0303892838129668 -173.798737764983 0.0303892838129669 -173.798737764983 0.958647528707817 144.740823995322 
! Gamma         0                0                0                0                
! Port Impedance         50               0                50               0                
2.056                          0.958683695208883 144.522536291395 0.0303793501069507 -174.104303284196 0.0303793501069509 -174.104303284196 0.95859408151115 144.519998168703 
! Gamma         0                0                0                0                
! Port Impedance         50               0                50               0                
2.058                          0.958630740302781 144.301602619125 0.0303692190228286 -174.41018657363 0.0303692190228288 -174.41018657363 0.958540521473577 144.299096827129 
! Gamma         0                0                0                0                
! Port Impedance         50               0                50               0                
2.06                           0.958577672405946 144.080592728779 0.030358889724822 -174.716391267167 0.0303588897248222 -174.716391267167 0.958486847745601 144.078119806565 
! Gamma         0                0                0                0                
! Port Impedance         50               0                50               0                
2.062                          0.958524490655569 143.859506456052 0.0303483613734724 -175.022921044062 0.0303483613734726 -175.022921044061 0.958433059473837 143.857066942839 
! Gamma         0                0                0                0                
! Port Impedance         50               0                50               0                
2.064                          0.958471194185019 143.638343636505 0.0303376331256455 -175.329779629654 0.0303376331256457 -175.329779629654 0.958379155800964 143.635938071633 
! Gamma         0                0                0                0                
! Port Impedance         50               0                50               0                
2.066                          0.958417782123791 143.417104105551 0.0303267041345361 -175.636970796103 0.0303267041345363 -175.636970796103 0.958325135865669 143.414733028474 
! Gamma         0                0                0                0                
! Port Impedance         50               0                50               0                
2.068                          0.958364253597452 143.195787698454 0.0303155735496743 -175.944498363124 0.0303155735496745 -175.944498363124 0.958270998802595 143.193451648726 
! Gamma         0                0                0                0                
! Port Impedance         50               0                50               0                
2.07                           0.958310607727592 142.974394250314 0.0303042405169329 -176.25236619875 0.030304240516933 -176.25236619875 0.958216743742286 142.972093767581 
! Gamma         0                0                0                0                
! Port Impedance         50               0                50               0                
2.072                          0.958256843631765 142.752923596058 0.0302927041785362 -176.560578220098 0.0302927041785363 -176.560578220098 0.958162369811133 142.750659220049 
! Gamma         0                0                0                0                
! Port Impedance         50               0                50               0                
2.074                          0.958202960423438 142.531375570436 0.0302809636730703 -176.869138394156 0.0302809636730705 -176.869138394156 0.958107876131313 142.529147840949 
! Gamma         0                0                0                0                
! Port Impedance         50               0                50               0                
2.076                          0.95814895721193 142.309750008003 0.0302690181354946 -177.178050738578 0.0302690181354947 -177.178050738578 0.958053261820736 142.307559464898 
! Gamma         0                0                0                0                
! Port Impedance         50               0                50               0                
2.078                          0.958094833102356 142.088046743117 0.0302568666971544 -177.487319322501 0.0302568666971546 -177.487319322501 0.957998525992979 142.085893926304 
! Gamma         0                0                0                0                
! Port Impedance         50               0                50               0                
2.08                           0.958040587195566 141.866265609925 0.0302445084857962 -177.796948267369 0.0302445084857964 -177.796948267368 0.957943667757229 141.864151059353 
! Gamma         0                0                0                0                
! Port Impedance         50               0                50               0                
2.082                          0.957986218588084 141.644406442353 0.0302319426255831 -178.106941747779 0.0302319426255833 -178.106941747779 0.957888686218219 141.642330698002 
! Gamma         0                0                0                0                
! Port Impedance         50               0                50               0                
2.084                          0.95793172637205 141.422469074095 0.0302191682371129 -178.417303992339 0.030219168237113 -178.417303992339 0.957833580476168 141.420432675965 
! Gamma         0                0                0                0                
! Port Impedance         50               0                50               0                
2.086                          0.957877109635148 141.200453338606 0.0302061844374373 -178.728039284543 0.0302061844374374 -178.728039284543 0.957778349626709 141.198456826705 
! Gamma         0                0                0                0                
! Port Impedance         50               0                50               0                
2.088                          0.957822367460547 140.978359069088 0.0301929903400833 -179.039151963662 0.0301929903400835 -179.039151963662 0.957722992760825 140.976402983422 
! Gamma         0                0                0                0                
! Port Impedance         50               0                50               0                
2.09                           0.957767498926837 140.756186098478 0.0301795850550765 -179.35064642565 0.0301795850550766 -179.35064642565 0.957667508964786 140.754270979044 
! Gamma         0                0                0                0                
! Port Impedance         50               0                50               0                
2.092                          0.95771250310795 140.533934259441 0.030165967688965 -179.662527124071 0.0301659676889652 -179.662527124071 0.95761189732007 140.532060646211 
! Gamma         0                0                0                0                
! Port Impedance         50               0                50               0                
2.094                          0.957657379073103 140.311603384354 0.0301521373448475 -179.974798571039 0.0301521373448477 -179.974798571039 0.9575561569033  140.309771817271 
! Gamma         0                0                0                0                
! Port Impedance         50               0                50               0                
2.096                          0.957602125886718 140.089193305299 0.0301380931224015 179.712534661822 0.0301380931224016 179.712534661822 0.957500286786168 140.087404324261 
! Gamma         0                0                0                0                
! Port Impedance         50               0                50               0                
2.098                          0.957546742608352 139.866703854047 0.0301238341179142 179.399467942398 0.0301238341179144 179.399467942398 0.957444286035358 139.864957998898 
! Gamma         0                0                0                0                
! Port Impedance         50               0                50               0                
2.1                            0.957491228292626 139.644134862049 0.0301093594243163 179.085996577094 0.0301093594243165 179.085996577094 0.957388153712474 139.642432672571 
! Gamma         0                0                0                0                
! Port Impedance         50               0                50               0                
2.102                          0.957435581989141 139.421486160419 0.030094668131217 178.772115809816 0.0300946681312172 178.772115809816 0.957331888873962 139.419828176322 
! Gamma         0                0                0                0                
! Port Impedance         50               0                50               0                
2.104                          0.95737980274241 139.19875757993  0.0300797593249419 178.457820820935 0.0300797593249421 178.457820820935 0.957275490571027 139.197144340835 
! Gamma         0                0                0                0                
! Port Impedance         50               0                50               0                
2.106                          0.957323889591769 138.975948950992 0.0300646320885734 178.14310672624  0.0300646320885735 178.14310672624  0.957218957849557 138.97438099643  
! Gamma         0                0                0                0                
! Port Impedance         50               0                50               0                
2.108                          0.957267841571304 138.753060103645 0.0300492855019931 177.827968575856 0.0300492855019932 177.827968575857 0.957162289750035 138.751537973039 
! Gamma         0                0                0                0                
! Port Impedance         50               0                50               0                
2.11                           0.957211657709762 138.530090867544 0.0300337186419278 177.512401353157 0.0300337186419279 177.512401353157 0.957105485307457 138.528615100203 
! Gamma         0                0                0                0                
! Port Impedance         50               0                50               0                
2.112                          0.95715533703047 138.307041071945 0.0300179305819968 177.196399973647 0.0300179305819969 177.196399973647 0.957048543551245 138.305612207051 
! Gamma         0                0                0                0                
! Port Impedance         50               0                50               0                
2.114                          0.957098878551245 138.083910545692 0.0300019203927635 176.879959283822 0.0300019203927637 176.879959283822 0.956991463505161 138.082529122291 
! Gamma         0                0                0                0                
! Port Impedance         50               0                50               0                
2.116                          0.957042281284309 137.860699117201 0.0299856871417888 176.563074060017 0.0299856871417889 176.563074060017 0.95693424418721 137.859365674194 
! Gamma         0                0                0                0                
! Port Impedance         50               0                50               0                
2.118                          0.956985544236194 137.637406614452 0.0299692298936878 176.245739007222 0.0299692298936879 176.245739007222 0.956876884609554 137.636121690579 
! Gamma         0                0                0                0                
! Port Impedance         50               0                50               0                
2.12                           0.956928666407654 137.414032864965 0.0299525477101899 175.927948757878 0.02995254771019 175.927948757878 0.956819383778415 137.412796998802 
! Gamma         0                0                0                0                
! Port Impedance         50               0                50               0                
2.122                          0.956871646793567 137.190577695793 0.0299356396502019 175.609697870651 0.0299356396502021 175.609697870651 0.956761740693979 137.189391425738 
! Gamma         0                0                0                0                
! Port Impedance         50               0                50               0                
2.124                          0.95681448438284 136.967040933505 0.0299185047698745 175.290980829184 0.0299185047698746 175.290980829184 0.956703954350297 136.965904797765 
! Gamma         0                0                0                0                
! Port Impedance         50               0                50               0                
2.126                          0.956757178158308 136.743422404168 0.0299011421226718 174.971792040818 0.0299011421226719 174.971792040818 0.956646023735185 136.742336940752 
! Gamma         0                0                0                0                
! Port Impedance         50               0                50               0                
2.128                          0.956699727096638 136.519721933335 0.0298835507594452 174.652125835294 0.0298835507594454 174.652125835294 0.956587947830118 136.518687680045 
! Gamma         0                0                0                0                
! Port Impedance         50               0                50               0                
2.13                           0.956642130168217 136.295939346027 0.0298657297285107 174.331976463431 0.0298657297285108 174.331976463431 0.956529725610131 136.294956840442 
! Gamma         0                0                0                0                
! Port Impedance         50               0                50               0                
2.132                          0.956584386337056 136.072074466717 0.0298476780757293 174.01133809577  0.0298476780757294 174.01133809577  0.956471356043707 136.071144246189 
! Gamma         0                0                0                0                
! Port Impedance         50               0                50               0                
2.134                          0.956526494560677 135.848127119316 0.0298293948445924 173.690204821201 0.0298293948445925 173.690204821201 0.956412838092666 135.847249720954 
! Gamma         0                0                0                0                
! Port Impedance         50               0                50               0                
2.136                          0.956468453790001 135.624097127152 0.0298108790763108 173.368570645554 0.0298108790763109 173.368570645554 0.956354170712058 135.623273087816 
! Gamma         0                0                0                0                
! Port Impedance         50               0                50               0                
2.138                          0.956410262969243 135.399984312957 0.0297921298099081 173.046429490172 0.0297921298099082 173.046429490172 0.956295352850045 135.399214169244 
! Gamma         0                0                0                0                
! Port Impedance         50               0                50               0                
2.14                           0.956351921035787 135.175788498847 0.0297731460823181 172.723775190446 0.0297731460823182 172.723775190446 0.956236383447782 135.175072787083 
! Gamma         0                0                0                0                
! Port Impedance         50               0                50               0                
2.142                          0.956293426920076 134.951509506305 0.0297539269284875 172.40060149433  0.0297539269284876 172.40060149433  0.956177261439302 134.950848762535 
! Gamma         0                0                0                0                
! Port Impedance         50               0                50               0                
2.144                          0.956234779545488 134.727147156166 0.0297344713814824 172.076902060816 0.0297344713814824 172.076902060816 0.956117985751393 134.72654191614  
! Gamma         0                0                0                0                
! Port Impedance         50               0                50               0                
2.146                          0.956175977828216 134.502701268591 0.0297147784726004 171.752670458392 0.0297147784726005 171.752670458392 0.956058555303468 134.502152067759 
! Gamma         0                0                0                0                
! Port Impedance         50               0                50               0                
2.148                          0.95611702067714 134.278171663059 0.0296948472314875 171.427900163458 0.0296948472314876 171.427900163458 0.955998969007443 134.277679036556 
! Gamma         0                0                0                0                
! Port Impedance         50               0                50               0                
2.15                           0.956057906993698 134.05355815834  0.0296746766862601 171.102584558712 0.0296746766862602 171.102584558712 0.955939225767606 134.053122640978 
! Gamma         0                0                0                0                
! Port Impedance         50               0                50               0                
2.152                          0.955998635671759 133.828860572477 0.0296542658636325 170.776716931515 0.0296542658636325 170.776716931515 0.955879324480481 133.828482698733 
! Gamma         0                0                0                0                
! Port Impedance         50               0                50               0                
2.154                          0.955939205597486 133.60407872277  0.0296336137890497 170.450290472204 0.0296336137890498 170.450290472204 0.955819264034694 133.603759026777 
! Gamma         0                0                0                0                
! Port Impedance         50               0                50               0                
2.156                          0.955879615649199 133.379212425752 0.029612719486827 170.123298272389 0.0296127194868271 170.123298272389 0.955759043310834 133.378951441289 
! Gamma         0                0                0                0                
! Port Impedance         50               0                50               0                
2.158                          0.955819864697236 133.154261497171 0.0295915819802937 169.795733323206 0.0295915819802938 169.795733323206 0.955698661181311 133.154059757652 
! Gamma         0                0                0                0                
! Port Impedance         50               0                50               0                
2.16                           0.955759951603813 132.929225751969 0.0295702002919453 169.467588513537 0.0295702002919454 169.467588513537 0.955638116510208 132.92908379043  
! Gamma         0                0                0                0                
! Port Impedance         50               0                50               0                
2.162                          0.95569987522287 132.704105004258 0.0295485734435997 169.138856628191 0.0295485734435998 169.138856628191 0.955577408153138 132.704023353354 