! Touchstone file exported from HFSS 2022.1.0
!        File:           C:/Users/Hamza Safder/Downloads/PSF-V2 with holder.aedt
!        Generated:      4:52:57 PM  Sep 29, 2023
!        Design:         HFSSDesign1
!        Project:        PSF-V2 with holder
!        Setup:          Setup1
!        Solution:       Sweep
!
! Variables:
!        WS = 5mm
!        ax = 15mm
!        az = 3.18mm
!        azd = 3mm
!        bx = 13mm
!        bx2 = 12.5mm
!        bx3 = 3.16mm
!        cin = 27.8mm
!        gap = 0.7mm
!        mid = 3mm
!        shift = 21.24mm
!        strip_1L = 18.62mm
!        substrate_L = 80mm
!        substrate_W = 70mm
!        t = 3mm
!        w50 = 9.18mm
!        wt = 1mm
!        xs = 0.8mm
!        zzz = 8mm
!
# GHz S MA R 50.000000
! Terminal data exported
! Port[1] = ground_T1
! Port[2] = ground_T2
2                              0.95988053432523 150.65087979736  0.0300997320037974 -165.980954622767 0.0300997320037972 -165.980954622767 0.959804752800076 150.647607690978 
! Gamma         0                0                0                0                
! Port Impedance         50               0                50               0                
2.002                          0.959829030715527 150.431878472038 0.0300927043102063 -166.281879470662 0.0300927043102061 -166.281879470663 0.959752659854892 150.428623474776 
! Gamma         0                0                0                0                
! Port Impedance         50               0                50               0                
2.004                          0.959777427937015 150.212804640736 0.0300854816287914 -166.583066170859 0.0300854816287912 -166.583066170859 0.95970046647768 150.209567286152 
! Gamma         0                0                0                0                
! Port Impedance         50               0                50               0                
2.006                          0.959725725103494 149.993658131185 0.0300780631835156 -166.884517667283 0.0300780631835154 -166.884517667283 0.959648171795766 149.990438953224 
! Gamma         0                0                0                0                
! Port Impedance         50               0                50               0                
2.008                          0.959673921324665 149.774438771081 0.0300704481935326 -167.186236939958 0.0300704481935325 -167.186236939959 0.959595774932285 149.771238304063 
! Gamma         0                0                0                0                
! Port Impedance         50               0                50               0                
2.01                           0.959622015706087 149.555146388074 0.0300626358731627 -167.48822700555 0.0300626358731626 -167.48822700555 0.959543275006133 149.551965166687 
! Gamma         0                0                0                0                
! Port Impedance         50               0                50               0                
2.012                          0.959570007349136 149.335780809769 0.0300546254318688 -167.790490917915 0.0300546254318686 -167.790490917915 0.959490671131922 149.332619369056 
! Gamma         0                0                0                0                
! Port Impedance         50               0                50               0                
2.014                          0.959517895350954 149.116341863712 0.030046416074233 -168.093031768665 0.0300464160742329 -168.093031768665 0.959437962419933 149.113200739066 
! Gamma         0                0                0                0                
! Port Impedance         50               0                50               0                
2.016                          0.959465678804406 148.896829377391 0.0300380069999343 -168.39585268774 0.0300380069999342 -168.39585268774 0.959385147976067 148.893709104541 
! Gamma         0                0                0                0                
! Port Impedance         50               0                50               0                
2.018                          0.959413356798029 148.677243178225 0.0300293974037253 -168.698956843987 0.0300293974037251 -168.698956843987 0.959332226901795 148.674144293228 
! Gamma         0                0                0                0                
! Port Impedance         50               0                50               0                
2.02                           0.959360928415985 148.457583093559 0.030020586475411 -169.002347445758 0.0300205864754109 -169.002347445758 0.959279198294111 148.454506132788 
! Gamma         0                0                0                0                
! Port Impedance         50               0                50               0                
2.022                          0.959308392738011 148.237848950656 0.0300115733998276 -169.30602774151 0.0300115733998275 -169.30602774151 0.959226061245475 148.234794450794 
! Gamma         0                0                0                0                
! Port Impedance         50               0                50               0                
2.024                          0.959255748839365 148.018040576694 0.0300023573568215 -169.610001020422 0.0300023573568214 -169.610001020422 0.959172814843768 148.015009074718 
! Gamma         0                0                0                0                
! Port Impedance         50               0                50               0                
2.026                          0.95920299579078 147.798157798753 0.0299929375212293 -169.914270613019 0.0299929375212293 -169.914270613019 0.959119458172229 147.795149831931 
! Gamma         0                0                0                0                
! Port Impedance         50               0                50               0                
2.028                          0.959150132658403 147.578200443813 0.0299833130628586 -170.218839891813 0.0299833130628585 -170.218839891813 0.959065990309408 147.57521654969  
! Gamma         0                0                0                0                
! Port Impedance         50               0                50               0                
2.03                           0.959097158503745 147.358168338746 0.0299734831464691 -170.523712271947 0.029973483146469 -170.523712271948 0.959012410329106 147.355209055133 
! Gamma         0                0                0                0                
! Port Impedance         50               0                50               0                
2.032                          0.959044072383625 147.138061310304 0.0299634469317547 -170.828891211862 0.0299634469317546 -170.828891211862 0.958958717300321 147.135127175271 
! Gamma         0                0                0                0                
! Port Impedance         50               0                50               0                
2.034                          0.95899087335011 146.917879185118 0.0299532035733262 -171.134380213964 0.0299532035733261 -171.134380213964 0.958904910287184 146.914970736983 
! Gamma         0                0                0                0                
! Port Impedance         50               0                50               0                
2.036                          0.958937560450463 146.697621789685 0.0299427522206948 -171.440182825314 0.0299427522206947 -171.440182825315 0.958850988348904 146.694739567003 
! Gamma         0                0                0                0                
! Port Impedance         50               0                50               0                
2.038                          0.958884132727076 146.477288950366 0.0299320920182564 -171.746302638326 0.0299320920182564 -171.746302638326 0.958796950539709 146.474433491919 
! Gamma         0                0                0                0                
! Port Impedance         50               0                50               0                
2.04                           0.958830589217416 146.256880493369 0.0299212221052772 -172.052743291475 0.0299212221052771 -172.052743291475 0.958742795908776 146.254052338158 
! Gamma         0                0                0                0                
! Port Impedance         50               0                50               0                
2.042                          0.958776928953956 146.03639624475  0.0299101416158789 -172.359508470026 0.0299101416158789 -172.359508470026 0.958688523500174 146.033595931983 
! Gamma         0                0                0                0                
! Port Impedance         50               0                50               0                
2.044                          0.958723150964121 145.815836030398 0.0298988496790267 -172.666601906767 0.0298988496790266 -172.666601906768 0.958634132352799 145.813064099482 
! Gamma         0                0                0                0                
! Port Impedance         50               0                50               0                
2.046                          0.958669254270212 145.595199676033 0.0298873454185165 -172.974027382767 0.0298873454185165 -172.974027382768 0.958579621500304 145.592456666559 
! Gamma         0                0                0                0                
! Port Impedance         50               0                50               0                
2.048                          0.958615237889351 145.37448700719  0.0298756279529644 -173.281788728136 0.0298756279529644 -173.281788728137 0.958524989971032 145.371773458928 
! Gamma         0                0                0                0                
! Port Impedance         50               0                50               0                
2.05                           0.958561100833404 145.153697849214 0.0298636963957967 -173.589889822808 0.0298636963957967 -173.589889822809 0.958470236787952 145.151014302102 
! Gamma         0                0                0                0                
! Port Impedance         50               0                50               0                
2.052                          0.958506842108919 144.932832027252 0.0298515498552404 -173.898334597336 0.0298515498552404 -173.898334597337 0.958415360968582 144.930179021385 
! Gamma         0                0                0                0                
! Port Impedance         50               0                50               0                
2.054                          0.958452460717052 144.711889366241 0.0298391874343164 -174.207127033702 0.0298391874343164 -174.207127033702 0.95836036152492 144.709267441862 
! Gamma         0                0                0                0                
! Port Impedance         50               0                50               0                
2.056                          0.958397955653495 144.490869690902 0.0298266082308325 -174.516271166139 0.0298266082308325 -174.51627116614 0.958305237463371 144.488279388388 
! Gamma         0                0                0                0                
! Port Impedance         50               0                50               0                
2.058                          0.958343325908405 144.269772825726 0.029813811337378 -174.82577108198 0.029813811337378 -174.82577108198 0.958249987784669 144.267214685584 
! Gamma         0                0                0                0                
! Port Impedance         50               0                50               0                
2.06                           0.958288570466327 144.048598594967 0.02980079584132 -175.135630922505 0.02980079584132 -175.135630922505 0.958194611483804 144.04607315782  
! Gamma         0                0                0                0                
! Port Impedance         50               0                50               0                
2.062                          0.958233688306115 143.827346822635 0.0297875608248007 -175.445854883821 0.0297875608248007 -175.445854883821 0.958139107549941 143.824854629211 
! Gamma         0                0                0                0                
! Port Impedance         50               0                50               0                
2.064                          0.958178678400859 143.606017332477 0.0297741053647361 -175.75644721775 0.0297741053647361 -175.75644721775 0.958083474966342 143.603558923602 
! Gamma         0                0                0                0                
! Port Impedance         50               0                50               0                
2.066                          0.958123539717803 143.384609947977 0.0297604285328162 -176.067412232737 0.0297604285328162 -176.067412232737 0.958027712710284 143.382185864564 
! Gamma         0                0                0                0                
! Port Impedance         50               0                50               0                
2.068                          0.95806827121826 143.163124492339 0.0297465293955067 -176.378754294772 0.0297465293955067 -176.378754294772 0.957971819752971 143.160735275374 
! Gamma         0                0                0                0                
! Port Impedance         50               0                50               0                
2.07                           0.958012871857532 142.941560788476 0.0297324070140527 -176.690477828335 0.0297324070140527 -176.690477828335 0.957915795059456 142.939206979016 
! Gamma         0                0                0                0                
! Port Impedance         50               0                50               0                
2.072                          0.957957340584826 142.719918659005 0.0297180604444831 -177.002587317354 0.0297180604444831 -177.002587317355 0.957859637588552 142.717600798158 
! Gamma         0                0                0                0                
! Port Impedance         50               0                50               0                
2.074                          0.957901676343163 142.498197926228 0.0297034887376176 -177.315087306189 0.0297034887376177 -177.315087306189 0.957803346292739 142.495916555152 
! Gamma         0                0                0                0                
! Port Impedance         50               0                50               0                
2.076                          0.957845878069291 142.276398412128 0.0296886909390751 -177.627982400623 0.0296886909390751 -177.627982400623 0.957746920118078 142.274154072013 
! Gamma         0                0                0                0                
! Port Impedance         50               0                50               0                
2.078                          0.957789944693596 142.054519938351 0.029673666089284 -177.941277268885 0.029673666089284 -177.941277268885 0.957690358004118 142.052313170415 
! Gamma         0                0                0                0                
! Port Impedance         50               0                50               0                
2.08                           0.957733875140008 141.832562326199 0.0296584132234943 -178.254976642686 0.0296584132234943 -178.254976642686 0.9576336588838  141.830393671674 
! Gamma         0                0                0                0                
! Port Impedance         50               0                50               0                
2.082                          0.957677668325903 141.610525396615 0.0296429313717919 -178.569085318275 0.0296429313717919 -178.569085318275 0.95757682168336 141.608395396739 
! Gamma         0                0                0                0                
! Port Impedance         50               0                50               0                
2.084                          0.957621323162014 141.388408970173 0.0296272195591146 -178.88360815752 0.0296272195591147 -178.88360815752 0.957519845322233 141.386318166179 
! Gamma         0                0                0                0                
! Port Impedance         50               0                50               0                
2.086                          0.957564838552324 141.166212867065 0.0296112768052712 -179.198550089006 0.0296112768052713 -179.198550089006 0.957462728712951 141.164161800169 
! Gamma         0                0                0                0                
! Port Impedance         50               0                50               0                
2.088                          0.957508213393972 140.943936907085 0.0295951021249612 -179.513916109158 0.0295951021249613 -179.513916109158 0.957405470761041 140.94192611848  
! Gamma         0                0                0                0                
! Port Impedance         50               0                50               0                
2.09                           0.957451446577144 140.721580909623 0.0295786945277984 -179.829711283382 0.0295786945277985 -179.829711283382 0.957348070364919 140.719610940465 
! Gamma         0                0                0                0                
! Port Impedance         50               0                50               0                
2.092                          0.957394536984974 140.499144693645 0.0295620530183362 179.854059252768 0.0295620530183362 179.854059252767 0.957290526415783 140.497216085044 
! Gamma         0                0                0                0                
! Port Impedance         50               0                50               0                
2.094                          0.957337483493433 140.276628077683 0.0295451765960949 179.537390292398 0.029545176596095 179.537390292397 0.957232837797508 140.274741370693 
! Gamma         0                0                0                0                
! Port Impedance         50               0                50               0                
2.096                          0.957280284971219 140.05403087982  0.0295280642555931 179.220276556065 0.0295280642555931 179.220276556064 0.957175003386527 140.052186615431 
! Gamma         0                0                0                0                
! Port Impedance         50               0                50               0                
2.098                          0.957222940279646 139.831352917678 0.0295107149863799 178.902712690537 0.0295107149863799 178.902712690537 0.957117022051724 139.829551636802 
! Gamma         0                0                0                0                
! Port Impedance         50               0                50               0                
2.1                            0.957165448272532 139.608594008403 0.0294931277730714 178.584693267533 0.0294931277730714 178.584693267533 0.957058892654314 139.606836251865 
! Gamma         0                0                0                0                
! Port Impedance         50               0                50               0                
2.102                          0.95710780779608 139.385753968648 0.0294753015953893 178.266212782435 0.0294753015953894 178.266212782435 0.957000614047724 139.384040277179 
! Gamma         0                0                0                0                
! Port Impedance         50               0                50               0                
2.104                          0.957050017688755 139.162832614564 0.0294572354282029 177.947265652974 0.029457235428203 177.947265652973 0.956942185077476 139.161163528785 
! Gamma         0                0                0                0                
! Port Impedance         50               0                50               0                
2.106                          0.956992076781172 138.939829761779 0.0294389282415736 177.627846217889 0.0294389282415737 177.627846217889 0.956883604581059 138.938205822196 
! Gamma         0                0                0                0                
! Port Impedance         50               0                50               0                
2.108                          0.956933983895963 138.716745225385 0.0294203790008038 177.307948735566 0.0294203790008038 177.307948735566 0.956824871387802 138.715166972378 
! Gamma         0                0                0                0                
! Port Impedance         50               0                50               0                
2.11                           0.956875737847653 138.493578819926 0.0294015866664876 176.987567382639 0.0294015866664877 176.987567382638 0.956765984318751 138.492046793735 
! Gamma         0                0                0                0                
! Port Impedance         50               0                50               0                
2.112                          0.956817337442531 138.270330359376 0.0293825501945664 176.666696252565 0.0293825501945665 176.666696252565 0.956706942186531 138.268845100097 
! Gamma         0                0                0                0                
! Port Impedance         50               0                50               0                
2.114                          0.956758781478518 138.046999657129 0.0293632685363873 176.345329354181 0.0293632685363874 176.345329354181 0.956647743795214 138.045561704696 
! Gamma         0                0                0                0                
! Port Impedance         50               0                50               0                
2.116                          0.95670006874503 137.823586525976 0.0293437406387656 176.023460610212 0.0293437406387657 176.023460610212 0.956588387940182 137.822196420161 
! Gamma         0                0                0                0                
! Port Impedance         50               0                50               0                
2.118                          0.956641198022842 137.600090778096 0.0293239654440507 175.701083855769 0.0293239654440508 175.701083855769 0.956528873407988 137.598749058489 
! Gamma         0                0                0                0                
! Port Impedance         50               0                50               0                
2.12                           0.956582168083945 137.376512225034 0.0293039418901965 175.3781928368   0.0293039418901967 175.378192836799 0.95646919897621 137.375219431038 
! Gamma         0                0                0                0                
! Port Impedance         50               0                50               0                
2.122                          0.956522977691405 137.152850677684 0.0292836689108362 175.054781208517 0.0292836689108363 175.054781208517 0.956409363413306 137.151607348505 
! Gamma         0                0                0                0                
! Port Impedance         50               0                50               0                
2.124                          0.956463625599212 136.929105946272 0.0292631454353604 174.730842533792 0.0292631454353605 174.730842533792 0.956349365478466 136.927912620908 
! Gamma         0                0                0                0                
! Port Impedance         50               0                50               0                
2.126                          0.956404110552133 136.705277840341 0.0292423703890008 174.406370281516 0.0292423703890009 174.406370281516 0.956289203921461 136.704135057572 
! Gamma         0                0                0                0                
! Port Impedance         50               0                50               0                
2.128                          0.956344431285559 136.481366168728 0.0292213426929178 174.081357824921 0.0292213426929179 174.081357824921 0.956228877482481 136.480274467105 
! Gamma         0                0                0                0                
! Port Impedance         50               0                50               0                
2.13                           0.956284586525347 136.257370739549 0.0292000612642934 173.755798439879 0.0292000612642935 173.755798439879 0.956168384891984 136.256330657385 
! Gamma         0                0                0                0                
! Port Impedance         50               0                50               0                
2.132                          0.95622457498766 136.03329136018  0.0291785250164287 173.429685303151 0.0291785250164288 173.429685303151 0.95610772487053 136.032303435539 
! Gamma         0                0                0                0                
! Port Impedance         50               0                50               0                
2.134                          0.956164395378804 135.809127837233 0.0291567328588469 173.103011490609 0.029156732858847 173.103011490609 0.956046896128614 135.808192607923 
! Gamma         0                0                0                0                
! Port Impedance         50               0                50               0                
2.136                          0.956104046395062 135.584879976545 0.0291346836974013 172.775769975421 0.0291346836974014 172.775769975421 0.955985897366501 135.583997980104 
! Gamma         0                0                0                0                
! Port Impedance         50               0                50               0                
2.138                          0.956043526722524 135.36054758315  0.0291123764343894 172.44795362619  0.0291123764343895 172.44795362619  0.955924727274051 135.359719356837 
! Gamma         0                0                0                0                
! Port Impedance         50               0                50               0                
2.14                           0.955982835036912 135.136130461265 0.029089809968672 172.119555205065 0.0290898099686721 172.119555205065 0.955863384530542 135.135356542051 
! Gamma         0                0                0                0                
! Port Impedance         50               0                50               0                
2.142                          0.955921970003404 134.911628414263 0.0290669831957991 171.790567365802 0.0290669831957993 171.790567365801 0.955801867804491 134.910909338821 
! Gamma         0                0                0                0                
! Port Impedance         50               0                50               0                
2.144                          0.955860930276449 134.687041244658 0.0290438950081413 171.460982651788 0.0290438950081415 171.460982651788 0.955740175753472 134.686377549354 
! Gamma         0                0                0                0                
! Port Impedance         50               0                50               0                
2.146                          0.955799714499587 134.462368754083 0.0290205442950281 171.130793494031 0.0290205442950282 171.130793494031 0.955678307023924 134.461760974961 
! Gamma         0                0                0                0                
! Port Impedance         50               0                50               0                
2.148                          0.955738321305257 134.237610743262 0.0289969299428923 170.799992209091 0.0289969299428925 170.799992209091 0.955616260250963 134.237059416042 
! Gamma         0                0                0                0                
! Port Impedance         50               0                50               0                
2.15                           0.955676749314604 134.012767011996 0.0289730508354221 170.468570996983 0.0289730508354222 170.468570996983 0.955554034058187 134.012272672058 
! Gamma         0                0                0                0                
! Port Impedance         50               0                50               0                
2.152                          0.955614997137281 133.787837359137 0.0289489058537193 170.136521939024 0.0289489058537194 170.136521939024 0.955491627057471 133.787400541512 
! Gamma         0                0                0                0                
! Port Impedance         50               0                50               0                
2.154                          0.955553063371249 133.562821582563 0.0289244938764658 169.803836995644 0.0289244938764659 169.803836995644 0.955429037848769 133.562442821926 
! Gamma         0                0                0                0                
! Port Impedance         50               0                50               0                
2.156                          0.95549094660257 133.337719479158 0.0288998137800973 169.47050800414  0.0288998137800974 169.470508004139 0.955366265019901 133.337399309816 
! Gamma         0                0                0                0                
! Port Impedance         50               0                50               0                
2.158                          0.955428645405199 133.112530844789 0.028874864438985 169.136526676389 0.0288748644389852 169.136526676389 0.955303307146342 133.112269800669 
! Gamma         0                0                0                0                
! Port Impedance         50               0                50               0                
2.16                           0.955366158340767 132.887255474276 0.0288496447256255 168.801884596511 0.0288496447256256 168.801884596511 0.955240162791007 132.887054088921 
! Gamma         0                0                0                0                
! Port Impedance         50               0                50               0                
2.162                          0.95530348395836 132.661893161375 0.028824153510839 168.46657321848  0.0288241535108391 168.466573218479 0.955176830504024 132.661751967929 