! Touchstone file exported from HFSS 2022.1.0
!        File:           C:/Users/Hamza Safder/Downloads/PSF-V2 with holder (2).aedt
!        Generated:      11:53:26 PM  Sep 21, 2023
!        Design:         HFSSDesign1
!        Project:        PSF-V2 with holder (2)
!        Setup:          Setup1
!        Solution:       Sweep
!
! Variables:
!        WS = 5mm
!        ax = 15mm
!        az = 3.18mm
!        azd = 3mm
!        bx = 13mm
!        bx2 = 12.5mm
!        bx3 = 3.16mm
!        cin = 27.8mm
!        gap = 0.7mm
!        mid = 3mm
!        shift = 21.24mm
!        strip_1L = 18.62mm
!        substrate_L = 80mm
!        substrate_W = 70mm
!        t = 3mm
!        w50 = 9.18mm
!        wt = 1mm
!        xs = 0.8mm
!        zzz = 8mm
!
# GHz S MA R 50.000000
! Terminal data exported
! Port[1] = ground_T1
! Port[2] = ground_T2
2                              0.960528323358353 150.781460679001 0.0319103020292756 -164.360911764265 0.0319103020292757 -164.360911764266 0.960440533922255 150.832535558606 
! Gamma         0                0                0                0                
! Port Impedance         50               0                50               0                
2.002                          0.960481196835004 150.5631049673   0.0319092261299112 -164.649998471381 0.0319092261299113 -164.649998471382 0.960393191981214 150.614198181242 
! Gamma         0                0                0                0                
! Port Impedance         50               0                50               0                
2.004                          0.960433992947418 150.344681848223 0.0319080288073856 -164.93924070591 0.0319080288073857 -164.939240705911 0.96034577213546 150.395792699414 
! Gamma         0                0                0                0                
! Port Impedance         50               0                50               0                
2.006                          0.960386711108685 150.126191188008 0.0319067093403603 -165.228640199333 0.0319067093403603 -165.228640199334 0.960298273794809 150.17731897762  
! Gamma         0                0                0                0                
! Port Impedance         50               0                50               0                
2.008                          0.960339350731243 149.907632853177 0.0319052670060227 -165.518198700165 0.0319052670060226 -165.518198700166 0.960250696368459 149.958776880646 
! Gamma         0                0                0                0                
! Port Impedance         50               0                50               0                
2.01                           0.960291911226875 149.689006710532 0.0319037010800784 -165.807917974196 0.0319037010800782 -165.807917974197 0.960203039264996 149.74016627356  
! Gamma         0                0                0                0                
! Port Impedance         50               0                50               0                
2.012                          0.960244392006711 149.470312627156 0.0319020108367437 -166.097799804729 0.0319020108367434 -166.09779980473 0.960155301892396 149.521487021718 
! Gamma         0                0                0                0                
! Port Impedance         50               0                50               0                
2.014                          0.960196792481235 149.251550470407 0.0319001955487374 -166.387845992828 0.0319001955487371 -166.387845992829 0.96010748365802 149.302738990755 
! Gamma         0                0                0                0                
! Port Impedance         50               0                50               0                
2.016                          0.960149112060276 149.032720107919 0.0318982544872739 -166.678058357567 0.0318982544872736 -166.678058357568 0.960059583968624 149.083922046584 
! Gamma         0                0                0                0                
! Port Impedance         50               0                50               0                
2.018                          0.960101350153017 148.813821407597 0.0318961869220555 -166.968438736281 0.0318961869220551 -166.968438736282 0.960011602230352 148.865036055396 
! Gamma         0                0                0                0                
! Port Impedance         50               0                50               0                
2.02                           0.960053506167992 148.594854237616 0.0318939921212647 -167.258988984825 0.0318939921212643 -167.258988984827 0.959963537848743 148.646080883657 
! Gamma         0                0                0                0                
! Port Impedance         50               0                50               0                
2.022                          0.960005579513086 148.37581846642  0.0318916693515576 -167.549710977834 0.0318916693515571 -167.549710977836 0.959915390228726 148.427056398104 
! Gamma         0                0                0                0                
! Port Impedance         50               0                50               0                
2.024                          0.959957569595536 148.156713962715 0.0318892178780562 -167.840606608985 0.0318892178780557 -167.840606608987 0.959867158774623 148.207962465742 
! Gamma         0                0                0                0                
! Port Impedance         50               0                50               0                
2.026                          0.959909475821931 147.937540595472 0.0318866369643421 -168.131677791267 0.0318866369643415 -168.131677791269 0.95981884289015 147.988798953845 
! Gamma         0                0                0                0                
! Port Impedance         50               0                50               0                
2.028                          0.959861297598212 147.718298233921 0.0318839258724491 -168.422926457257 0.0318839258724484 -168.422926457259 0.959770441978413 147.769565729948 
! Gamma         0                0                0                0                
! Port Impedance         50               0                50               0                
2.03                           0.959813034329669 147.498986747546 0.0318810838628567 -168.71435455939 0.031881083862856 -168.714354559392 0.959721955441911 147.550262661849 
! Gamma         0                0                0                0                
! Port Impedance         50               0                50               0                
2.032                          0.959764685420942 147.279606006088 0.0318781101944838 -169.005964070245 0.0318781101944831 -169.005964070247 0.959673382682534 147.330889617604 
! Gamma         0                0                0                0                
! Port Impedance         50               0                50               0                
2.034                          0.95971625027602 147.060155879538 0.0318750041246822 -169.29775698283 0.0318750041246815 -169.297756982833 0.95962472310156 147.111446465525 
! Gamma         0                0                0                0                
! Port Impedance         50               0                50               0                
2.036                          0.959667728298238 146.840636238134 0.0318717649092304 -169.58973531087 0.0318717649092296 -169.589735310872 0.959575976099657 146.891933074175 
! Gamma         0                0                0                0                
! Port Impedance         50               0                50               0                
2.038                          0.959619118890278 146.621046952359 0.0318683918023276 -169.881901089099 0.0318683918023268 -169.881901089102 0.959527141076879 146.672349312366 
! Gamma         0                0                0                0                
! Port Impedance         50               0                50               0                
2.04                           0.959570421454164 146.401387892938 0.0318648840565882 -170.174256373565 0.0318648840565873 -170.174256373567 0.959478217432664 146.452695049157 
! Gamma         0                0                0                0                
! Port Impedance         50               0                50               0                
2.042                          0.959521635391261 146.181658930835 0.0318612409230358 -170.466803241927 0.0318612409230349 -170.46680324193 0.959429204565835 146.232970153849 
! Gamma         0                0                0                0                
! Port Impedance         50               0                50               0                
2.044                          0.959472760102273 145.961859937247 0.0318574616510982 -170.759543793766 0.0318574616510973 -170.759543793769 0.959380101874593 146.013174495982 
! Gamma         0                0                0                0                
! Port Impedance         50               0                50               0                
2.046                          0.959423794987239 145.741990783604 0.0318535454886023 -171.052480150898 0.0318535454886013 -171.052480150901 0.959330908756517 145.793307945334 
! Gamma         0                0                0                0                
! Port Impedance         50               0                50               0                
2.048                          0.959374739445531 145.522051341563 0.0318494916817688 -171.34561445769 0.0318494916817678 -171.345614457693 0.95928162460856 145.573370371911 
! Gamma         0                0                0                0                
! Port Impedance         50               0                50               0                
2.05                           0.95932559287585 145.302041483006 0.0318452994752082 -171.638948881382 0.0318452994752071 -171.638948881385 0.959232248827048 145.353361645953 
! Gamma         0                0                0                0                
! Port Impedance         50               0                50               0                
2.052                          0.959276354676222 145.081961080035 0.0318409681119159 -171.932485612419 0.0318409681119148 -171.932485612422 0.959182780807671 145.13328163792  
! Gamma         0                0                0                0                
! Port Impedance         50               0                50               0                
2.054                          0.959227024243996 144.861810004969 0.0318364968332684 -172.226226864777 0.0318364968332673 -172.22622686478 0.959133219945484 144.913130218497 
! Gamma         0                0                0                0                
! Port Impedance         50               0                50               0                
2.056                          0.959177600975833 144.641588130341 0.0318318848790196 -172.520174876306 0.0318318848790184 -172.52017487631 0.959083565634901 144.692907258583 
! Gamma         0                0                0                0                
! Port Impedance         50               0                50               0                
2.058                          0.959128084267711 144.42129532889  0.0318271314872971 -172.814331909073 0.0318271314872959 -172.814331909076 0.959033817269691 144.472612629293 
! Gamma         0                0                0                0                
! Port Impedance         50               0                50               0                
2.06                           0.959078473514913 144.200931473561 0.0318222358945991 -173.108700249706 0.0318222358945979 -173.108700249709 0.958983974242968 144.25224620195  
! Gamma         0                0                0                0                
! Port Impedance         50               0                50               0                
2.062                          0.959028768112024 143.980496437502 0.0318171973357919 -173.403282209753 0.0318171973357906 -173.403282209757 0.958934035947196 144.031807848081 
! Gamma         0                0                0                0                
! Port Impedance         50               0                50               0                
2.064                          0.958978967452923 143.759990094054 0.0318120150441068 -173.698080126041 0.0318120150441055 -173.698080126045 0.958884001774171 143.811297439415 
! Gamma         0                0                0                0                
! Port Impedance         50               0                50               0                
2.066                          0.95892907093078 143.539412316751 0.0318066882511386 -173.99309636104 0.0318066882511373 -173.993096361043 0.958833871115025 143.590714847875 
! Gamma         0                0                0                0                
! Port Impedance         50               0                50               0                
2.068                          0.958879077938048 143.318762979315 0.0318012161868437 -174.288333303232 0.0318012161868423 -174.288333303236 0.958783643360213 143.370059945579 
! Gamma         0                0                0                0                
! Port Impedance         50               0                50               0                
2.07                           0.958828987866455 143.098041955649 0.0317955980795385 -174.583793367495 0.0317955980795371 -174.583793367499 0.95873331789951 143.14933260483  
! Gamma         0                0                0                0                
! Port Impedance         50               0                50               0                
2.072                          0.958778800106999 142.877249119836 0.031789833155899 -174.879478995479 0.0317898331558976 -174.879478995483 0.958682894122001 142.928532698112 
! Gamma         0                0                0                0                
! Port Impedance         50               0                50               0                
2.074                          0.958728514049939 142.656384346131 0.0317839206409598 -175.175392655999 0.0317839206409584 -175.175392656002 0.958632371416075 142.707660098089 
! Gamma         0                0                0                0                
! Port Impedance         50               0                50               0                
2.076                          0.958678129084785 142.435447508957 0.0317778597581145 -175.471536845429 0.0317778597581131 -175.471536845433 0.958581749169415 142.486714677598 
! Gamma         0                0                0                0                
! Port Impedance         50               0                50               0                
2.078                          0.958627644600294 142.214438482902 0.031771649729116 -175.767914088105 0.0317716497291146 -175.767914088109 0.958531026768995 142.265696309639 
! Gamma         0                0                0                0                
! Port Impedance         50               0                50               0                
2.08                           0.958577059984457 141.99335714271  0.0317652897740773 -176.064526936735 0.0317652897740758 -176.064526936739 0.958480203601062 142.04460486738  
! Gamma         0                0                0                0                
! Port Impedance         50               0                50               0                
2.082                          0.958526374624491 141.772203363279 0.031758779111473 -176.361377972807 0.0317587791114715 -176.361377972811 0.958429279051134 141.823440224143 
! Gamma         0                0                0                0                
! Port Impedance         50               0                50               0                
2.084                          0.958475587906829 141.550977019655 0.0317521169581415 -176.65846980702 0.03175211695814 -176.658469807024 0.958378252503988 141.602202253401 
! Gamma         0                0                0                0                
! Port Impedance         50               0                50               0                
2.086                          0.958424699217112 141.329677987024 0.0317453025292873 -176.955805079705 0.0317453025292858 -176.955805079709 0.958327123343648 141.380890828776 
! Gamma         0                0                0                0                
! Port Impedance         50               0                50               0                
2.088                          0.958373707940173 141.10830614071  0.0317383350384842 -177.253386461263 0.0317383350384827 -177.253386461267 0.958275890953377 141.159505824028 
! Gamma         0                0                0                0                
! Port Impedance         50               0                50               0                
2.09                           0.958322613460032 140.886861356167 0.0317312136976788 -177.55121665261 0.0317312136976773 -177.551216652614 0.958224554715664 140.938047113052 
! Gamma         0                0                0                0                
! Port Impedance         50               0                50               0                
2.092                          0.95827141515988 140.665343508974 0.0317239377171951 -177.849298385622 0.0317239377171935 -177.849298385626 0.958173114012213 140.716514569874 
! Gamma         0                0                0                0                
! Port Impedance         50               0                50               0                
2.094                          0.958220112422067 140.443752474828 0.0317165063057392 -178.147634423595 0.0317165063057376 -178.147634423599 0.95812156822393 140.49490806864  
! Gamma         0                0                0                0                
! Port Impedance         50               0                50               0                
2.096                          0.958168704628093 140.22208812954  0.031708918670405 -178.446227561709 0.0317089186704035 -178.446227561713 0.958069916730912 140.273227483616 
! Gamma         0                0                0                0                
! Port Impedance         50               0                50               0                
2.098                          0.958117191158591 140.000350349027 0.0317011740166808 -178.7450806275  0.0317011740166793 -178.745080627505 0.958018158912431 140.051472689176 
! Gamma         0                0                0                0                
! Port Impedance         50               0                50               0                
2.1                            0.958065571393314 139.778539009305 0.0316932715484558 -179.044196481341 0.0316932715484542 -179.044196481345 0.957966294146923 139.829643559798 
! Gamma         0                0                0                0                
! Port Impedance         50               0                50               0                
2.102                          0.958013844711121 139.556653986485 0.0316852104680282 -179.343578016926 0.0316852104680266 -179.34357801693 0.957914321811973 139.607739970061 
! Gamma         0                0                0                0                
! Port Impedance         50               0                50               0                
2.104                          0.957962010489965 139.334695156764 0.0316769899761137 -179.643228161771 0.0316769899761121 -179.643228161775 0.957862241284298 139.38576179463  
! Gamma         0                0                0                0                
! Port Impedance         50               0                50               0                
2.106                          0.957910068106872 139.112662396419 0.0316686092718548 -179.943149877715 0.0316686092718532 -179.943149877719 0.957810051939734 139.163708908259 
! Gamma         0                0                0                0                
! Port Impedance         50               0                50               0                
2.108                          0.95785801693793 138.890555581802 0.0316600675528312 179.756653838568 0.0316600675528296 179.756653838563 0.957757753153221 138.941581185776 
! Gamma         0                0                0                0                
! Port Impedance         50               0                50               0                
2.11                           0.957805856358272 138.66837458933  0.0316513640150704 179.456179955044 0.0316513640150687 179.456179955039 0.957705344298783 138.71937850208  
! Gamma         0                0                0                0                
! Port Impedance         50               0                50               0                
2.112                          0.957753585742054 138.446119295478 0.03164249785306 179.155425403794 0.0316424978530584 179.155425403789 0.957652824749512 138.497100732134 
! Gamma         0                0                0                0                
! Port Impedance         50               0                50               0                
2.114                          0.957701204462443 138.223789576775 0.0316334682597607 178.854387080474 0.031633468259759 178.854387080469 0.957600193877554 138.274747750956 
! Gamma         0                0                0                0                
! Port Impedance         50               0                50               0                
2.116                          0.957648711891599 138.001385309792 0.0316242744266195 178.553061843766 0.0316242744266178 178.553061843761 0.957547451054083 138.052319433612 
! Gamma         0                0                0                0                
! Port Impedance         50               0                50               0                
2.118                          0.957596107400649 137.778906371139 0.0316149155435852 178.251446514822 0.0316149155435835 178.251446514818 0.95749459564929 137.829815655208 
! Gamma         0                0                0                0                
! Port Impedance         50               0                50               0                
2.12                           0.957543390359675 137.556352637453 0.0316053907991239 177.949537876701 0.0316053907991222 177.949537876697 0.957441627032358 137.607236290885 
! Gamma         0                0                0                0                
! Port Impedance         50               0                50               0                
2.122                          0.957490560137691 137.333723985392 0.031595699380236 177.647332673787 0.0315956993802343 177.647332673782 0.957388544571443 137.384581215805 
! Gamma         0                0                0                0                
! Port Impedance         50               0                50               0                
2.124                          0.957437616102621 137.111020291629 0.0315858404724741 177.344827611209 0.0315858404724725 177.344827611204 0.957335347633655 137.16185030515  
! Gamma         0                0                0                0                
! Port Impedance         50               0                50               0                
2.126                          0.957384557621277 136.888241432838 0.0315758132599626 177.042019354242 0.0315758132599609 177.042019354238 0.957282035585034 136.93904343411  
! Gamma         0                0                0                0                
! Port Impedance         50               0                50               0                
2.128                          0.957331384059342 136.665387285694 0.0315656169254174 176.738904527707 0.0315656169254157 176.738904527703 0.957228607790526 136.716160477872 
! Gamma         0                0                0                0                
! Port Impedance         50               0                50               0                
2.13                           0.95727809478134 136.442457726855 0.031555250650168 176.435479715349 0.0315552506501663 176.435479715345 0.957175063613966 136.493201311617 
! Gamma         0                0                0                0                
! Port Impedance         50               0                50               0                
2.132                          0.957224689150615 136.21945263296  0.0315447136141801 176.131741459214 0.0315447136141785 176.13174145921  0.957121402418047 136.270165810509 
! Gamma         0                0                0                0                
! Port Impedance         50               0                50               0                
2.134                          0.957171166529308 135.99637188062  0.0315340049960801 175.827686259013 0.0315340049960784 175.827686259008 0.957067623564299 136.047053849684 
! Gamma         0                0                0                0                
! Port Impedance         50               0                50               0                
2.136                          0.957117526278331 135.773215346403 0.03152312397318 175.52331057147  0.0315231239731783 175.523310571465 0.957013726413064 135.823865304244 
! Gamma         0                0                0                0                
! Port Impedance         50               0                50               0                
2.138                          0.957063767757338 135.549982906832 0.0315120697215049 175.21861080967  0.0315120697215032 175.218610809665 0.956959710323469 135.600600049244 
! Gamma         0                0                0                0                
! Port Impedance         50               0                50               0                
2.14                           0.957009890324705 135.326674438371 0.0315008414158213 174.913583342381 0.0315008414158196 174.913583342376 0.956905574653399 135.377257959688 
! Gamma         0                0                0                0                
! Port Impedance         50               0                50               0                
2.142                          0.956955893337494 135.103289817417 0.0314894382296666 174.608224493378 0.0314894382296649 174.608224493374 0.956851318759468 135.153838910514 
! Gamma         0                0                0                0                
! Port Impedance         50               0                50               0                
2.144                          0.956901776151431 134.879828920289 0.031477859335381 174.302530540748 0.0314778593353794 174.302530540744 0.956796941996992 134.930342776587 
! Gamma         0                0                0                0                
! Port Impedance         50               0                50               0                
2.146                          0.956847538120873 134.656291623223 0.0314661039041405 173.996497716183 0.0314661039041388 173.996497716178 0.95674244371996 134.706769432689 
! Gamma         0                0                0                0                
! Port Impedance         50               0                50               0                
2.148                          0.956793178598779 134.432677802352 0.0314541711059913 173.690122204261 0.0314541711059896 173.690122204257 0.956687823281003 134.483118753507 
! Gamma         0                0                0                0                
! Port Impedance         50               0                50               0                
2.15                           0.956738696936683 134.208987333706 0.0314420601098865 173.383400141722 0.0314420601098848 173.383400141717 0.95663308003136 134.259390613625 
! Gamma         0                0                0                0                
! Port Impedance         50               0                50               0                
2.152                          0.956684092484653 133.985220093197 0.0314297700837243 173.076327616716 0.0314297700837226 173.076327616712 0.956578213320851 134.035584887512 
! Gamma         0                0                0                0                
! Port Impedance         50               0                50               0                
2.154                          0.956629364591266 133.761375956605 0.0314173001943881 172.768900668056 0.0314173001943864 172.768900668051 0.956523222497841 133.811701449511 
! Gamma         0                0                0                0                
! Port Impedance         50               0                50               0                
2.156                          0.956574512603573 133.537454799574 0.0314046496077883 172.461115284441 0.0314046496077866 172.461115284437 0.956468106909205 133.58774017383  
! Gamma         0                0                0                0                
! Port Impedance         50               0                50               0                
2.158                          0.95651953586706 133.313456497596 0.0313918174889063 172.15296740368  0.0313918174889046 172.152967403676 0.956412865900296 133.363700934529 
! Gamma         0                0                0                0                
! Port Impedance         50               0                50               0                
2.16                           0.956464433725618 133.089380926    0.0313788030018405 171.84445291189  0.0313788030018388 171.844452911885 0.956357498814906 133.139583605507 
! Gamma         0                0                0                0                
! Port Impedance         50               0                50               0                
2.162                          0.956409205521502 132.865227959945 0.0313656053098543 171.535567642688 0.0313656053098527 171.535567642683 0.956302004995231 132.915388060496 