! Touchstone file exported from HFSS 2022.1.0
!        File:           C:/Users/Hamza Safder/Downloads/PSF-V2 with holder.aedt
!        Generated:      1:38:14 PM  Sep 29, 2023
!        Design:         HFSSDesign1
!        Project:        PSF-V2 with holder
!        Setup:          Setup1
!        Solution:       Sweep
!
! Variables:
!        WS = 5mm
!        ax = 15mm
!        az = 3.18mm
!        azd = 3mm
!        bx = 13mm
!        bx2 = 12.5mm
!        bx3 = 3.16mm
!        cin = 27.8mm
!        gap = 0.7mm
!        mid = 3mm
!        shift = 21.24mm
!        strip_1L = 18.62mm
!        substrate_L = 80mm
!        substrate_W = 70mm
!        t = 3mm
!        w50 = 9.18mm
!        wt = 1mm
!        xs = 0.8mm
!        zzz = 8mm
!
# GHz S MA R 50.000000
! Terminal data exported
! Port[1] = ground_T1
! Port[2] = ground_T2
2                              0.960384286308416 150.740042171737 0.0314741870674927 -164.611994063223 0.0314741870674923 -164.611994063224 0.960317087391752 150.736941430845 
! Gamma         0                0                0                0                
! Port Impedance         50               0                50               0                
2.002                          0.960335604009284 150.521467374729 0.0314729456732188 -164.903279483331 0.0314729456732184 -164.903279483332 0.960267851735391 150.518384534001 
! Gamma         0                0                0                0                
! Port Impedance         50               0                50               0                
2.004                          0.960286842955664 150.302822882443 0.0314715466983241 -165.19473959261 0.0314715466983237 -165.19473959261 0.960218536448568 150.29975847771  
! Gamma         0                0                0                0                
! Port Impedance         50               0                50               0                
2.006                          0.96023800247738 150.084108548166 0.0314699895705638 -165.486376345331 0.0314699895705634 -165.486376345331 0.960169140875704 150.081063115674 
! Gamma         0                0                0                0                
! Port Impedance         50               0                50               0                
2.008                          0.960189081902824 149.865324225412 0.031468273714936 -165.778191716398 0.0314682737149357 -165.778191716398 0.960119664359722 149.862298301815 
! Gamma         0                0                0                0                
! Port Impedance         50               0                50               0                
2.01                           0.960140080558951 149.646469767924 0.031466398553666 -166.070187701628 0.0314663985536656 -166.070187701628 0.960070106242041 149.643463890269 
! Gamma         0                0                0                0                
! Port Impedance         50               0                50               0                
2.012                          0.960090997771271 149.427545029666 0.0314643635061894 -166.362366318046 0.0314643635061891 -166.362366318046 0.960020465862568 149.424559735386 
! Gamma         0                0                0                0                
! Port Impedance         50               0                50               0                
2.014                          0.960041832863846 149.208549864823 0.0314621679891362 -166.654729604174 0.0314621679891359 -166.654729604174 0.959970742559691 149.205585691727 
! Gamma         0                0                0                0                
! Port Impedance         50               0                50               0                
2.016                          0.959992585159281 148.989484127798 0.0314598114163145 -166.947279620335 0.0314598114163142 -166.947279620335 0.959920935670271 148.986541614061 
! Gamma         0                0                0                0                
! Port Impedance         50               0                50               0                
2.018                          0.959943253978718 148.770347673208 0.0314572931986944 -167.240018448951 0.031457293198694 -167.240018448951 0.959871044529636 148.767427357362 
! Gamma         0                0                0                0                
! Port Impedance         50               0                50               0                
2.02                           0.959893838641826 148.551140355883 0.0314546127443924 -167.532948194858 0.0314546127443921 -167.532948194858 0.959821068471571 148.548242776805 
! Gamma         0                0                0                0                
! Port Impedance         50               0                50               0                
2.022                          0.959844338466799 148.33186203086  0.0314517694586559 -167.826070985614 0.0314517694586556 -167.826070985614 0.959771006828309 148.328987727765 
! Gamma         0                0                0                0                
! Port Impedance         50               0                50               0                
2.024                          0.95979475277034 148.112512553384 0.0314487627438474 -168.119388971819 0.0314487627438471 -168.119388971819 0.959720858930523 148.109662065811 
! Gamma         0                0                0                0                
! Port Impedance         50               0                50               0                
2.026                          0.959745080867663 147.8930917789   0.0314455919994293 -168.41290432744 0.031445591999429 -168.412904327441 0.959670624107314 147.890265646706 
! Gamma         0                0                0                0                
! Port Impedance         50               0                50               0                
2.028                          0.959695322072471 147.673599563052 0.0314422566219489 -168.706619250138 0.0314422566219486 -168.706619250138 0.959620301686207 147.6707983264   
! Gamma         0                0                0                0                
! Port Impedance         50               0                50               0                
2.03                           0.959645475696961 147.454035761681 0.0314387560050234 -169.0005359616  0.0314387560050231 -169.0005359616  0.959569890993135 147.451259961031 
! Gamma         0                0                0                0                
! Port Impedance         50               0                50               0                
2.032                          0.959595541051802 147.234400230818 0.0314350895393254 -169.29465670788 0.0314350895393251 -169.294656707881 0.959519391352429 147.231650406917 
! Gamma         0                0                0                0                
! Port Impedance         50               0                50               0                
2.034                          0.959545517446134 147.014692826685 0.0314312566125684 -169.588983759747 0.0314312566125681 -169.588983759747 0.959468802086812 147.011969520556 
! Gamma         0                0                0                0                
! Port Impedance         50               0                50               0                
2.036                          0.959495404187552 146.794913405687 0.0314272566094924 -169.883519413026 0.0314272566094921 -169.883519413027 0.959418122517382 146.792217158617 
! Gamma         0                0                0                0                
! Port Impedance         50               0                50               0                
2.038                          0.959445200582099 146.575061824408 0.0314230889118503 -170.178265988965 0.03142308891185 -170.178265988965 0.959367351963602 146.572393177945 
! Gamma         0                0                0                0                
! Port Impedance         50               0                50               0                
2.04                           0.959394905934252 146.355137939612 0.0314187528983941 -170.473225834585 0.0314187528983938 -170.473225834586 0.959316489743288 146.352497435548 
! Gamma         0                0                0                0                
! Port Impedance         50               0                50               0                
2.042                          0.959344519546911 146.135141608234 0.0314142479448615 -170.768401323059 0.0314142479448613 -170.768401323059 0.959265535172598 146.132529788598 
! Gamma         0                0                0                0                
! Port Impedance         50               0                50               0                
2.044                          0.959294040721389 145.915072687379 0.0314095734239628 -171.063794854074 0.0314095734239626 -171.063794854074 0.959214487566015 145.912490094426 
! Gamma         0                0                0                0                
! Port Impedance         50               0                50               0                
2.046                          0.959243468757396 145.694931034315 0.0314047287053684 -171.359408854219 0.0314047287053681 -171.359408854219 0.959163346236337 145.692378210517 
! Gamma         0                0                0                0                
! Port Impedance         50               0                50               0                
2.048                          0.959192802953029 145.474716506473 0.0313997131556958 -171.655245777366 0.0313997131556956 -171.655245777367 0.959112110494661 145.472193994506 
! Gamma         0                0                0                0                
! Port Impedance         50               0                50               0                
2.05                           0.959142042604757 145.254428961436 0.0313945261384984 -171.951308105065 0.0313945261384981 -171.951308105065 0.959060779650368 145.251937304174 
! Gamma         0                0                0                0                
! Port Impedance         50               0                50               0                
2.052                          0.959091187007406 145.034068256941 0.0313891670142528 -172.247598346938 0.0313891670142525 -172.247598346939 0.95900935301111 145.031607997444 
! Gamma         0                0                0                0                
! Port Impedance         50               0                50               0                
2.054                          0.959040235454147 144.813634250871 0.0313836351403482 -172.544119041089 0.031383635140348 -172.544119041089 0.958957829882794 144.811205932374 
! Gamma         0                0                0                0                
! Port Impedance         50               0                50               0                
2.056                          0.958989187236479 144.593126801252 0.0313779298710752 -172.840872754512 0.031377929871075 -172.840872754512 0.958906209569561 144.590730967156 
! Gamma         0                0                0                0                
! Port Impedance         50               0                50               0                
2.058                          0.958938041644217 144.372545766245 0.0313720505576152 -173.137862083509 0.031372050557615 -173.137862083509 0.958854491373779 144.370182960106 
! Gamma         0                0                0                0                
! Port Impedance         50               0                50               0                
2.06                           0.958886797965469 144.151891004145 0.0313659965480304 -173.435089654119 0.0313659965480302 -173.435089654119 0.958802674596016 144.149561769665 
! Gamma         0                0                0                0                
! Port Impedance         50               0                50               0                
2.062                          0.958835455486626 143.931162373373 0.0313597671872542 -173.732558122547 0.031359767187254 -173.732558122548 0.95875075853503 143.928867254389 
! Gamma         0                0                0                0                
! Port Impedance         50               0                50               0                
2.064                          0.958784013492344 143.710359732474 0.0313533618170818 -174.030270175606 0.0313533618170816 -174.030270175606 0.958698742487746 143.708099272946 
! Gamma         0                0                0                0                
! Port Impedance         50               0                50               0                
2.066                          0.958732471265522 143.489482940106 0.031346779776162 -174.32822853116 0.0313467797761618 -174.32822853116 0.958646625749237 143.487257684111 
! Gamma         0                0                0                0                
! Port Impedance         50               0                50               0                
2.068                          0.958680828087288 143.268531855041 0.0313400203999884 -174.626435938582 0.0313400203999882 -174.626435938582 0.95859440761271 143.266342346761 
! Gamma         0                0                0                0                
! Port Impedance         50               0                50               0                
2.07                           0.958629083236979 143.047506336156 0.0313330830208924 -174.924895179217 0.0313330830208922 -174.924895179217 0.958542087369479 143.045353119865 
! Gamma         0                0                0                0                
! Port Impedance         50               0                50               0                
2.072                          0.958577235992121 142.826406242427 0.0313259669680357 -175.223609066846 0.0313259669680355 -175.223609066846 0.958489664308951 142.824289862484 
! Gamma         0                0                0                0                
! Port Impedance         50               0                50               0                
2.074                          0.95852528562841 142.605231432926 0.031318671567404 -175.52258044817 0.0313186715674039 -175.52258044817 0.958437137718597 142.603152433764 
! Gamma         0                0                0                0                
! Port Impedance         50               0                50               0                
2.076                          0.95847323141969 142.383981766813 0.0313111961418012 -175.821812203292 0.0313111961418011 -175.821812203292 0.95838450688394 142.381940692928 
! Gamma         0                0                0                0                
! Port Impedance         50               0                50               0                
2.078                          0.958421072637932 142.162657103327 0.0313035400108439 -176.121307246212 0.0313035400108437 -176.121307246212 0.958331771088522 142.160654499269 
! Gamma         0                0                0                0                
! Port Impedance         50               0                50               0                
2.08                           0.958368808553214 141.941257301788 0.031295702490957 -176.42106852533 0.0312957024909569 -176.421068525331 0.958278929613891 141.939293712149 
! Gamma         0                0                0                0                
! Port Impedance         50               0                50               0                
2.082                          0.958316438433696 141.719782221583 0.0312876828953699 -176.721099023957 0.0312876828953698 -176.721099023957 0.958225981739568 141.717858190987 
! Gamma         0                0                0                0                
! Port Impedance         50               0                50               0                
2.084                          0.958263961545595 141.498231722161 0.031279480534113 -177.021401760831 0.0312794805341128 -177.021401760831 0.958172926743031 141.496347795257 
! Gamma         0                0                0                0                
! Port Impedance         50               0                50               0                
2.086                          0.958211377153169 141.276605663031 0.0312710947140153 -177.32197979065 0.0312710947140152 -177.321979790651 0.958119763899681 141.274762384477 
! Gamma         0                0                0                0                
! Port Impedance         50               0                50               0                
2.088                          0.958158684518683 141.054903903749 0.0312625247387032 -177.62283620461 0.031262524738703 -177.62283620461 0.958066492482825 141.053101818208 
! Gamma         0                0                0                0                
! Port Impedance         50               0                50               0                
2.09                           0.958105882902387 140.833126303917 0.0312537699085988 -177.923974130946 0.0312537699085986 -177.923974130946 0.958013111763642 140.83136595604  
! Gamma         0                0                0                0                
! Port Impedance         50               0                50               0                
2.092                          0.958052971562492 140.61127272317  0.0312448295209204 -178.225396735494 0.0312448295209203 -178.225396735494 0.957959621011161 140.609554657592 
! Gamma         0                0                0                0                
! Port Impedance         50               0                50               0                
2.094                          0.957999949755141 140.389343021175 0.0312357028696833 -178.527107222255 0.0312357028696832 -178.527107222255 0.957906019492227 140.387667782499 
! Gamma         0                0                0                0                
! Port Impedance         50               0                50               0                
2.096                          0.957946816734381 140.167337057618 0.031226389245701 -178.829108833968 0.0312263892457009 -178.829108833968 0.957852306471481 140.16570519041  
! Gamma         0                0                0                0                
! Port Impedance         50               0                50               0                
2.098                          0.957893571752137 139.945254692202 0.0312168879365884 -179.131404852701 0.0312168879365883 -179.131404852701 0.957798481211321 139.943666740976 
! Gamma         0                0                0                0                
! Port Impedance         50               0                50               0                
2.1                            0.957840214058179 139.723095784634 0.031207198226765 -179.43399860044 0.0312071982267648 -179.43399860044 0.957744542971876 139.721552293845 
! Gamma         0                0                0                0                
! Port Impedance         50               0                50               0                
2.102                          0.957786742900095 139.500860194622 0.0311973193974595 -179.736893439702 0.0311973193974594 -179.736893439702 0.957690491010975 139.499361708654 
! Gamma         0                0                0                0                
! Port Impedance         50               0                50               0                
2.104                          0.957733157523259 139.278547781864 0.0311872507267158 179.959907225854 0.0311872507267157 179.959907225854 0.957636324584113 139.277094845019 
! Gamma         0                0                0                0                
! Port Impedance         50               0                50               0                
2.106                          0.957679457170799 139.056158406041 0.0311769914893989 179.656399950797 0.0311769914893988 179.656399950796 0.957582042944419 139.054751562531 
! Gamma         0                0                0                0                
! Port Impedance         50               0                50               0                
2.108                          0.957625641083565 138.833691926808 0.0311665409572034 179.352581247284 0.0311665409572033 179.352581247283 0.957527645342623 138.832331720743 
! Gamma         0                0                0                0                
! Port Impedance         50               0                50               0                
2.11                           0.957571708500095 138.611148203788 0.0311558983986623 179.048447584413 0.0311558983986622 179.048447584413 0.95747313102702 138.609835179166 
! Gamma         0                0                0                0                
! Port Impedance         50               0                50               0                
2.112                          0.957517658656581 138.388527096561 0.0311450630791568 178.743995387561 0.0311450630791568 178.743995387561 0.957418499243432 138.387261797256 
! Gamma         0                0                0                0                
! Port Impedance         50               0                50               0                
2.114                          0.957463490786832 138.165828464656 0.0311340342609281 178.439221037712 0.0311340342609281 178.439221037712 0.957363749235176 138.16461143441  
! Gamma         0                0                0                0                
! Port Impedance         50               0                50               0                
2.116                          0.957409204122242 137.943052167541 0.0311228112030899 178.134120870768 0.0311228112030898 178.134120870768 0.957308880243025 137.941883949953 
! Gamma         0                0                0                0                
! Port Impedance         50               0                50               0                
2.118                          0.957354797891748 137.720198064618 0.031111393161642 177.828691176858 0.031111393161642 177.828691176858 0.957253891505165 137.719079203133 
! Gamma         0                0                0                0                
! Port Impedance         50               0                50               0                
2.12                           0.957300271321793 137.497266015207 0.0310997793894867 177.522928199624 0.0310997793894866 177.522928199624 0.957198782257162 137.496197053107 
! Gamma         0                0                0                0                
! Port Impedance         50               0                50               0                
2.122                          0.95724562363629 137.274255878545 0.0310879691364443 177.216828135503 0.0310879691364442 177.216828135503 0.957143551731917 137.273237358934 
! Gamma         0                0                0                0                
! Port Impedance         50               0                50               0                
2.124                          0.957190854056576 137.051167513767 0.0310759616492726 176.910387132987 0.0310759616492725 176.910387132987 0.957088199159627 137.050199979568 
! Gamma         0                0                0                0                
! Port Impedance         50               0                50               0                
2.126                          0.957135961801377 136.828000779903 0.0310637561716857 176.603601291881 0.0310637561716856 176.603601291881 0.957032723767739 136.827084773843 
! Gamma         0                0                0                0                
! Port Impedance         50               0                50               0                
2.128                          0.95708094608676 136.604755535868 0.0310513519443761 176.296466662536 0.0310513519443761 176.296466662536 0.956977124780909 136.603891600466 
! Gamma         0                0                0                0                
! Port Impedance         50               0                50               0                
2.13                           0.957025806126093 136.381431640448 0.0310387482050377 175.988979245077 0.0310387482050376 175.988979245076 0.956921401420958 136.380620318008 
! Gamma         0                0                0                0                
! Port Impedance         50               0                50               0                
2.132                          0.956970541130001 136.15802895229  0.0310259441883898 175.681134988613 0.0310259441883898 175.681134988612 0.956865552906822 136.157270784891 
! Gamma         0                0                0                0                
! Port Impedance         50               0                50               0                
2.134                          0.956915150306317 135.934547329896 0.0310129391262047 175.372929790433 0.0310129391262047 175.372929790433 0.956809578454507 135.933842859378 
! Gamma         0                0                0                0                
! Port Impedance         50               0                50               0                
2.136                          0.956859632860036 135.710986631607 0.0309997322473353 175.06435949519  0.0309997322473352 175.06435949519  0.956753477277044 135.710336399564 
! Gamma         0                0                0                0                
! Port Impedance         50               0                50               0                
2.138                          0.95680398799327 135.487346715595 0.0309863227777452 174.755419894065 0.0309863227777452 174.755419894065 0.956697248584434 135.486751263362 
! Gamma         0                0                0                0                
! Port Impedance         50               0                50               0                
2.14                           0.956748214905196 135.263627439851 0.0309727099405417 174.446106723922 0.0309727099405416 174.446106723922 0.956640891583598 135.263087308495 
! Gamma         0                0                0                0                
! Port Impedance         50               0                50               0                
2.142                          0.956692312792006 135.039828662172 0.030958892956009 174.136415666442 0.0309588929560089 174.136415666442 0.956584405478331 135.039344392484 
! Gamma         0                0                0                0                
! Port Impedance         50               0                50               0                
2.144                          0.956636280846854 134.815950240155 0.0309448710416451 173.826342347244 0.030944871041645 173.826342347244 0.956527789469241 134.815522372633 
! Gamma         0                0                0                0                
! Port Impedance         50               0                50               0                
2.146                          0.956580118259806 134.591992031176 0.0309306434122  173.515882334993 0.0309306434121999 173.515882334992 0.956471042753698 134.591621106022 
! Gamma         0                0                0                0                
! Port Impedance         50               0                50               0                
2.148                          0.956523824217785 134.367953892388 0.0309162092797163 173.205031140482 0.0309162092797163 173.205031140482 0.95641416452578 134.367640449492 
! Gamma         0                0                0                0                
! Port Impedance         50               0                50               0                
2.15                           0.95646739790451 134.1438356807   0.0309015678535726 172.89378421571  0.0309015678535726 172.893784215709 0.956357153976212 134.143580259634 
! Gamma         0                0                0                0                
! Port Impedance         50               0                50               0                
2.152                          0.956410838500446 133.919637252771 0.0308867183405282 172.58213695293  0.0308867183405282 172.58213695293  0.956300010292309 133.919440392774 
! Gamma         0                0                0                0                
! Port Impedance         50               0                50               0                
2.154                          0.956354145182743 133.695358464994 0.0308716599447714 172.270084683693 0.0308716599447714 172.270084683692 0.956242732657917 133.695220704966 
! Gamma         0                0                0                0                
! Port Impedance         50               0                50               0                
2.156                          0.956297317125175 133.470999173483 0.0308563918679699 171.957622677857 0.0308563918679698 171.957622677857 0.95618532025335 133.470921051972 
! Gamma         0                0                0                0                
! Port Impedance         50               0                50               0                
2.158                          0.956240353498079 133.246559234061 0.0308409133093235 171.644746142598 0.0308409133093234 171.644746142597 0.956127772255327 133.246541289253 
! Gamma         0                0                0                0                
! Port Impedance         50               0                50               0                
2.16                           0.956183253468292 133.022038502246 0.0308252234656203 171.331450221384 0.0308252234656203 171.331450221384 0.956070087836909 133.022081271956 
! Gamma         0                0                0                0                
! Port Impedance         50               0                50               0                
2.162                          0.956126016199088 132.797436833239 0.030809321531295 171.017729992944 0.030809321531295 171.017729992944 0.956012266167431 132.797540854898 